 VARIABLES="X" "Y" "U<sub>x" "V<sub>y" "Pressure" "Temprature"
 Zone i=           31 ,j=           31 ,k=1,f=point
    0.000000000000000         0.000000000000000         0.000000000000000      
    0.000000000000000         0.000000000000000         100.0000000000000     
   3.3333333333333333E-002    0.000000000000000         0.000000000000000      
   1.0198755831386436E-006  -8.1590653104251869E-005    100.0000000000000     
   6.6666666666666666E-002    0.000000000000000       -5.0992192552257126E-007 
   1.7126440671537219E-007  -5.2810881003735773E-004    100.0000000000000     
   0.1000000000000000         0.000000000000000       -3.3002119296637381E-006 
   1.1005302954923192E-006  -1.1222194358029179E-003    100.0000000000000     
   0.1333333333333333         0.000000000000000         0.000000000000000      
   2.3394864950402646E-006  -1.6722346122105369E-003    100.0000000000000     
   0.1666666666666667         0.000000000000000         0.000000000000000      
    0.000000000000000       -2.0840331137736276E-003    100.0000000000000     
   0.2000000000000000         0.000000000000000         0.000000000000000      
    0.000000000000000       -2.3263378903471167E-003    100.0000000000000     
   0.2333333333333333         0.000000000000000         0.000000000000000      
    0.000000000000000       -2.3825535773332128E-003    100.0000000000000     
   0.2666666666666667         0.000000000000000         0.000000000000000      
    0.000000000000000       -2.2490964566704735E-003    100.0000000000000     
   0.3000000000000000         0.000000000000000         0.000000000000000      
    0.000000000000000       -1.9292291652046041E-003    100.0000000000000     
   0.3333333333333333         0.000000000000000         0.000000000000000      
    0.000000000000000       -1.4270707524877357E-003    100.0000000000000     
   0.3666666666666666         0.000000000000000         0.000000000000000      
    0.000000000000000       -7.5011303509562558E-004    100.0000000000000     
   0.4000000000000000         0.000000000000000         0.000000000000000      
    0.000000000000000        9.1175965923963542E-005    100.0000000000000     
   0.4333333333333334         0.000000000000000         0.000000000000000      
    0.000000000000000        1.0795320240835782E-003    100.0000000000000     
   0.4666666666666667         0.000000000000000         0.000000000000000      
    0.000000000000000        2.1889138088679060E-003    100.0000000000000     
   0.5000000000000000         0.000000000000000         0.000000000000000      
    0.000000000000000        3.3823922752788125E-003    100.0000000000000     
   0.5333333333333333         0.000000000000000         0.000000000000000      
    0.000000000000000        4.6117734924401681E-003    100.0000000000000     
   0.5666666666666667         0.000000000000000         0.000000000000000      
    0.000000000000000        5.8189395497402329E-003    100.0000000000000     
   0.6000000000000000         0.000000000000000         0.000000000000000      
    0.000000000000000        6.9392502290237541E-003    100.0000000000000     
   0.6333333333333333         0.000000000000000         0.000000000000000      
    0.000000000000000        7.9068145548130998E-003    100.0000000000000     
   0.6666666666666666         0.000000000000000         0.000000000000000      
    0.000000000000000        8.6611790494714111E-003    100.0000000000000     
   0.7000000000000000         0.000000000000000         0.000000000000000      
    0.000000000000000        9.1547109529068506E-003    100.0000000000000     
   0.7333333333333333         0.000000000000000         0.000000000000000      
    0.000000000000000        9.3593129914697933E-003    100.0000000000000     
   0.7666666666666667         0.000000000000000         0.000000000000000      
    0.000000000000000        9.2723835436536658E-003    100.0000000000000     
   0.8000000000000000         0.000000000000000         0.000000000000000      
    0.000000000000000        8.9193574135996347E-003    100.0000000000000     
   0.8333333333333334         0.000000000000000         0.000000000000000      
    0.000000000000000        8.3545660739906980E-003    100.0000000000000     
   0.8666666666666667         0.000000000000000         0.000000000000000      
    0.000000000000000        7.6605684035853409E-003    100.0000000000000     
   0.9000000000000000         0.000000000000000         0.000000000000000      
    0.000000000000000        6.9434445475202939E-003    100.0000000000000     
   0.9333333333333334         0.000000000000000         0.000000000000000      
    0.000000000000000        6.3428134002724897E-003    100.0000000000000     
   0.9666666666666667         0.000000000000000         0.000000000000000      
    0.000000000000000        5.9939471814676477E-003    100.0000000000000     
    1.000000000000000         0.000000000000000         0.000000000000000      
    0.000000000000000        5.9785636764415487E-003    100.0000000000000     
    0.000000000000000        3.3333333333333333E-002   1.6997681496470599E-007 
  -1.6615607084155731E-007   8.2587677187050143E-005    100.0000000000000     
   3.3333333333333333E-002   3.3333333333333333E-002   8.6735765794381364E-006 
  -8.8108818617368653E-006  -2.2102553249978764E-007    102.7082255681768     
   6.6666666666666666E-002   3.3333333333333333E-002  -3.4585957185752998E-004 
   2.2960609682030366E-004  -2.7420177952598116E-004    105.4355124232146     
   0.1000000000000000        3.3333333333333333E-002  -1.2722360287019010E-003 
   4.8466613513449856E-004  -6.2404785622203931E-004    108.0905264545359     
   0.1333333333333333        3.3333333333333333E-002  -2.7205025762061658E-003 
   6.8908467777966363E-004  -9.6206517689587166E-004    110.6628570099037     
   0.1666666666666667        3.3333333333333333E-002  -4.5723334972367687E-003 
   8.3586591634159189E-004  -1.2244265365185783E-003    113.2188374370103     
   0.2000000000000000        3.3333333333333333E-002  -6.6958398794369463E-003 
   9.2473009460538073E-004  -1.3714293252979593E-003    115.7235662718245     
   0.2333333333333333        3.3333333333333333E-002  -8.9684095643931955E-003 
   9.6444751998302301E-004  -1.3832266086594143E-003    118.2394159240063     
   0.2666666666666667        3.3333333333333333E-002  -1.1281979626571669E-002 
   9.6140564822005654E-004  -1.2512181368816821E-003    120.6648377812820     
   0.3000000000000000        3.3333333333333333E-002  -1.3541483209717141E-002 
   9.2165847446154059E-004  -9.7202768524036075E-004    122.9730688026432     
   0.3333333333333333        3.3333333333333333E-002  -1.5660613059498694E-002 
   8.4716277064188455E-004  -5.4817205130744634E-004    125.0829293141990     
   0.3666666666666666        3.3333333333333333E-002  -1.7558348964666164E-002 
   7.3990428041251916E-004   1.5843070504461892E-005    126.9632207967053     
   0.4000000000000000        3.3333333333333333E-002  -1.9156093090489646E-002 
   6.0009357944349709E-004   7.0998987837077592E-004    128.5780468241738     
   0.4333333333333334        3.3333333333333333E-002  -2.0378614159838212E-002 
   4.2923777865303187E-004   1.5192380131741337E-003    129.9090926207981     
   0.4666666666666667        3.3333333333333333E-002  -2.1156391074699816E-002 
   2.3029824580979365E-004   2.4210758212762267E-003    130.9279662057280     
   0.5000000000000000        3.3333333333333333E-002  -2.1431249504041069E-002 
   9.1216408225693333E-006   3.3850400763209298E-003    131.6032894784689     
   0.5333333333333333        3.3333333333333333E-002  -2.1163013531987084E-002 
  -2.2528031680516181E-004   4.3724866506567100E-003    131.8998858134006     
   0.5666666666666667        3.3333333333333333E-002  -2.0336866528997608E-002 
  -4.6067951200165085E-004   5.3379838454250686E-003    131.7850457407470     
   0.6000000000000000        3.3333333333333333E-002  -1.8969714676777005E-002 
  -6.8227160282922179E-004   6.2320094958235438E-003    131.2328326648101     
   0.6333333333333333        3.3333333333333333E-002  -1.7114581513725219E-002 
  -8.7383688269818919E-004   7.0050232567166202E-003    130.2297114821189     
   0.6666666666666666        3.3333333333333333E-002  -1.4861661590436621E-002 
  -1.0193012333378115E-003   7.6125949228127432E-003    128.7763627433998     
   0.7000000000000000        3.3333333333333333E-002  -1.2335665579931989E-002 
  -1.1047860990203414E-003   8.0206848423644179E-003    126.8941113884224     
   0.7333333333333333        3.3333333333333333E-002  -9.6883643231002389E-003 
  -1.1201586727234867E-003   8.2111568191790291E-003    124.6172675456881     
   0.7666666666666667        3.3333333333333333E-002  -7.0878265075059394E-003 
  -1.0614010218582240E-003   8.1846712716012841E-003    122.0049448720404     
   0.8000000000000000        3.3333333333333333E-002  -4.7033370136484497E-003 
  -9.3085633396137199E-004   7.9643504987433420E-003    119.1169181281309     
   0.8333333333333334        3.3333333333333333E-002  -2.6903765151660994E-003 
  -7.3845006328469029E-004   7.5931355487566321E-003    116.0328129446857     
   0.8666666666666667        3.3333333333333333E-002  -1.1693215975458983E-003 
  -5.0207401549530808E-004   7.1364604319603866E-003    112.8224329764552     
   0.9000000000000000        3.3333333333333333E-002  -2.1698518616761024E-004 
  -2.4735116490435778E-004   6.6656770593189829E-003    109.5620243329129     
   0.9333333333333334        3.3333333333333333E-002   1.8877439234797524E-004 
  -1.8708635477910024E-005   6.2845115890064517E-003    106.3222182681576     
   0.9666666666666667        3.3333333333333333E-002   1.2765640059691892E-004 
   1.1237545672577034E-004   6.0211703955226469E-003    103.1178746999094     
    1.000000000000000        3.3333333333333333E-002   2.4942731331674503E-005 
   4.9853863535126447E-005   6.0736599345843261E-003    100.0000000000000     
    0.000000000000000        6.6666666666666666E-002  -1.3887179608126874E-007 
   4.8250296811934409E-007   5.4254680466635642E-004    100.0000000000000     
   3.3333333333333333E-002   6.6666666666666666E-002  -2.3845712591735027E-004 
   3.5235102411980271E-004   2.6914315670807491E-004    105.4303188564409     
   6.6666666666666666E-002   6.6666666666666666E-002  -1.3449391765158435E-003 
   1.3116288512652395E-003  -1.1797154001506313E-005    110.9511246184805     
   0.1000000000000000        6.6666666666666666E-002  -3.3362332862636392E-003 
   2.3354511203239722E-003  -3.5277629150318868E-004    116.3454164112720     
   0.1333333333333333        6.6666666666666666E-002  -6.1643981890269232E-003 
   3.1845981903384064E-003  -6.4660102086803127E-004    121.6237910464614     
   0.1666666666666667        6.6666666666666666E-002  -9.6384733382238602E-003 
   3.8006580234555888E-003  -8.6743003488514716E-004    126.5187380011846     
   0.2000000000000000        6.6666666666666666E-002  -1.3560281714299009E-002 
   4.1828012682256568E-003  -9.8301566425428293E-004    131.6805034332691     
   0.2333333333333333        6.6666666666666666E-002  -1.7724841678708372E-002 
   4.3511313136172947E-003  -9.8123075022822030E-004    136.6175014427251     
   0.2666666666666667        6.6666666666666666E-002  -2.1946615718196311E-002 
   4.3316868664889591E-003  -8.5245042673482764E-004    141.5358261171325     
   0.3000000000000000        6.6666666666666666E-002  -2.6054433941506090E-002 
   4.1414546386762579E-003  -5.9679753478941429E-004    146.1239194085273     
   0.3333333333333333        6.6666666666666666E-002  -2.9892015830707011E-002 
   3.7954788958891603E-003  -2.1210582763292628E-004    150.3551317534767     
   0.3666666666666666        6.6666666666666666E-002  -3.3310594398710418E-002 
   3.2987689496513897E-003   2.9629650165092646E-004    154.0670033066369     
   0.4000000000000000        6.6666666666666666E-002  -3.6170358821404673E-002 
   2.6582803743320747E-003   9.2233023518569282E-004    157.2579886729361     
   0.4333333333333334        6.6666666666666666E-002  -3.8339008255266205E-002 
   1.8820177365534388E-003   1.6530665926396406E-003    159.8732602992565     
   0.4666666666666667        6.6666666666666666E-002  -3.9698669173390468E-002 
   9.8659135394283727E-004   2.4696346993063867E-003    161.8716814743225     
   0.5000000000000000        6.6666666666666666E-002  -4.0153570676127591E-002 
  -4.7053867172813591E-007   3.3451523302228236E-003    163.1871620631329     
   0.5333333333333333        6.6666666666666666E-002  -3.9641300909164671E-002 
  -1.0384395157857929E-003   4.2450749458625217E-003    163.7523568935837     
   0.5666666666666667        6.6666666666666666E-002  -3.8143618509129791E-002 
  -2.0740376433016185E-003   5.1281145593727448E-003    163.5024661057413     
   0.6000000000000000        6.6666666666666666E-002  -3.5696018630148714E-002 
  -3.0440688455349086E-003   5.9487966804279060E-003    162.3872748339257     
   0.6333333333333333        6.6666666666666666E-002  -3.2393649375028345E-002 
  -3.8802531337449233E-003   6.6612748252982117E-003    160.3779842642665     
   0.6666666666666666        6.6666666666666666E-002  -2.8392629022456466E-002 
  -4.5159220879364267E-003   7.2240463731275276E-003    157.4827636786726     
   0.7000000000000000        6.6666666666666666E-002  -2.3904515713293092E-002 
  -4.8932878166724958E-003   7.6054502260640465E-003    153.7319791054580     
   0.7333333333333333        6.6666666666666666E-002  -1.9185359553339200E-002 
  -4.9723371615736454E-003   7.7876673704488529E-003    149.2181173125892     
   0.7666666666666667        6.6666666666666666E-002  -1.4516593575566356E-002 
  -4.7354537595930149E-003   7.7721056652417728E-003    144.0185752328744     
   0.8000000000000000        6.6666666666666666E-002  -1.0181944388061141E-002 
  -4.1953790930118482E-003   7.5788319412167749E-003    138.3088698145285     
   0.8333333333333334        6.6666666666666666E-002  -6.4403060071890729E-003 
  -3.3955067692214990E-003   7.2472907794185392E-003    132.1756281237809     
   0.8666666666666667        6.6666666666666666E-002  -3.4941052104152273E-003 
  -2.4122388011553245E-003   6.8351590903959966E-003    125.8091040828097     
   0.9000000000000000        6.6666666666666666E-002  -1.4662749163497463E-003 
  -1.3618162425202765E-003   6.4048525432066940E-003    119.3017715470270     
   0.9333333333333334        6.6666666666666666E-002  -3.4382487418192938E-004 
  -4.0830110028985310E-004   6.0441532886507778E-003    112.8086970665689     
   0.9666666666666667        6.6666666666666666E-002  -9.3496111472399434E-006 
   1.8478667997837717E-004   5.7823681744982782E-003    106.3574033572069     
    1.000000000000000        6.6666666666666666E-002   2.5707090429748247E-005 
   5.0991251272829624E-005   5.8128273908430598E-003    100.0000000000000     
    0.000000000000000        0.1000000000000000       -1.1298981718754291E-006 
   3.3915626378776754E-006   1.1785343056913233E-003    100.0000000000000     
   3.3333333333333333E-002   0.1000000000000000       -5.3196641713590203E-004 
   1.3371990856101614E-003   6.1686874111434623E-004    108.2408993990380     
   6.6666666666666666E-002   0.1000000000000000       -2.5346942934377763E-003 
   3.3561234216858723E-003   3.0639121746339754E-004    116.6085513613771     
   0.1000000000000000        0.1000000000000000       -5.6751034466894709E-003 
   5.3793570852283586E-003  -4.8316739579434454E-005    124.8129788481950     
   0.1333333333333333        0.1000000000000000       -9.8695139953152138E-003 
   7.0589696844316711E-003  -3.0769315521488543E-004    132.7247499776530     
   0.1666666666666667        0.1000000000000000       -1.4853490929432930E-002 
   8.2866406702362914E-003  -4.9701887799488405E-004    140.5218578683079     
   0.2000000000000000        0.1000000000000000       -2.0380871034356096E-002 
   9.0493105340143550E-003  -5.8723248363259212E-004    147.6143454409700     
   0.2333333333333333        0.1000000000000000       -2.6198279560993153E-002 
   9.3769576393202530E-003  -5.7467693698764609E-004    155.4193884484589     
   0.2666666666666667        0.1000000000000000       -3.2058410173618095E-002 
   9.3057514837272173E-003  -4.5786803167687141E-004    162.6296466865580     
   0.3000000000000000        0.1000000000000000       -3.7739826776723176E-002 
   8.8782241988708856E-003  -2.2982784037086103E-004    169.8553410610040     
   0.3333333333333333        0.1000000000000000       -4.3026397338236433E-002 
   8.1106713933834645E-003   1.0465727356407626E-004    176.1251324021673     
   0.3666666666666666        0.1000000000000000       -4.7721492164961049E-002 
   7.0263758508125234E-003   5.4888898408500520E-004    181.6810831844382     
   0.4000000000000000        0.1000000000000000       -5.1635325838524752E-002 
   5.6372673191105926E-003   1.0962168615709699E-003    186.3261959467051     
   0.4333333333333334        0.1000000000000000       -5.4594824778647709E-002 
   3.9671755291934103E-003   1.7393534189052815E-003    190.1015577215735     
   0.4666666666666667        0.1000000000000000       -5.6445464783665474E-002 
   2.0535842547414582E-003   2.4630932405637703E-003    192.9168999170934     
   0.5000000000000000        0.1000000000000000       -5.7064960265353876E-002 
  -4.2713654515142668E-005   3.2454568538036795E-003    194.7021051399394     
   0.5333333333333333        0.1000000000000000       -5.6375147324454047E-002 
  -2.2358639289545169E-003   4.0563211109932778E-003    195.3653466475817     
   0.5666666666666667        0.1000000000000000       -5.4355634298521402E-002 
  -4.4158419302123570E-003   4.8586406187799075E-003    194.8283426938480     
   0.6000000000000000        0.1000000000000000       -5.1054576481425189E-002 
  -6.4541558073479615E-003   5.6104843713157826E-003    193.0324990710808     
   0.6333333333333333        0.1000000000000000       -4.6595948347708666E-002 
  -8.2132769236316818E-003   6.2686066733358145E-003    189.9522918040254     
   0.6666666666666666        0.1000000000000000       -4.1180206781942931E-002 
  -9.5591250654603419E-003   6.7932839530075633E-003    185.5858737395729     
   0.7000000000000000        0.1000000000000000       -3.5080029749560655E-002 
  -1.0376846550557414E-002   7.1528092112407718E-003    180.0370042408077     
   0.7333333333333333        0.1000000000000000       -2.8623482096945301E-002 
  -1.0583168187575384E-002   7.3305175904678490E-003    173.3279495787625     
   0.7666666666666667        0.1000000000000000       -2.2175899855948179E-002 
  -1.0146603355645524E-002   7.3234272433594311E-003    165.7568838029110     
   0.8000000000000000        0.1000000000000000       -1.6105554150103691E-002 
  -9.0892049141647006E-003   7.1507420273213759E-003    157.2410322410085     
   0.8333333333333334        0.1000000000000000       -1.0752976779045154E-002 
  -7.5010611212460105E-003   6.8472801161898935E-003    148.3474006022737     
   0.8666666666666667        0.1000000000000000       -6.3893130126315726E-003 
  -5.5371569032459560E-003   6.4610182453410025E-003    138.8329593649918     
   0.9000000000000000        0.1000000000000000       -3.1810895266322658E-003 
  -3.4261261127748388E-003   6.0521644644268985E-003    129.1172632594512     
   0.9333333333333334        0.1000000000000000       -1.1666887543600841E-003 
  -1.4743040624338067E-003   5.6710499300952214E-003    119.3603185020124     
   0.9666666666666667        0.1000000000000000       -1.9699575214745163E-004 
  -1.2749607367593414E-004   5.3915852625212712E-003    109.6580408814157     
    1.000000000000000        0.1000000000000000         0.000000000000000      
    0.000000000000000        5.2053975046999516E-003    100.0000000000000     
    0.000000000000000        0.1333333333333333         0.000000000000000      
    0.000000000000000        1.7999082859652233E-003    100.0000000000000     
   3.3333333333333333E-002   0.1333333333333333       -8.1610129062265752E-004 
   2.9800185397223173E-003   9.4595552871837632E-004    111.1524520630520     
   6.6666666666666666E-002   0.1333333333333333       -3.7200179718286995E-003 
   6.4532104937251667E-003   5.6380012038110975E-004    122.4861871589015     
   0.1000000000000000        0.1333333333333333       -8.0205577533308172E-003 
   9.7171406558458368E-003   1.4583978107521366E-004    133.6808351516220     
   0.1333333333333333        0.1333333333333333       -1.3562511575555302E-002 
   1.2383836177730171E-002  -1.2553899533389529E-004    144.5584274530193     
   0.1666666666666667        0.1333333333333333       -1.9983914520276737E-002 
   1.4320426454298110E-002  -3.1688946770601801E-004    154.7660689649911     
   0.2000000000000000        0.1333333333333333       -2.7006106683369172E-002 
   1.5513621980046906E-002  -4.1081354747537553E-004    164.7876977204349     
   0.2333333333333333        0.1333333333333333       -3.4309530379431831E-002 
   1.5999132164712822E-002  -4.0682304191183512E-004    172.5474816453476     
   0.2666666666666667        0.1333333333333333       -4.1652636065000297E-002 
   1.5840561724521762E-002  -3.0055243824550075E-004    184.3510158029291     
   0.3000000000000000        0.1333333333333333       -4.8728709479916581E-002 
   1.5069037059487336E-002  -1.1000294856121241E-004    193.4035331620741     
   0.3333333333333333        0.1333333333333333       -5.5307733710209771E-002 
   1.3743745699287123E-002   1.8644780278433351E-004    202.2316775929562     
   0.3666666666666666        0.1333333333333333       -6.1139506383779900E-002 
   1.1880221895866412E-002   5.7563279484377139E-004    209.3192997010659     
   0.4000000000000000        0.1333333333333333       -6.6009098413202544E-002 
   9.5159746026275711E-003   1.0647764621221664E-003    215.3438288310492     
   0.4333333333333334        0.1333333333333333       -6.9705951981145930E-002 
   6.6873104455095487E-003   1.6469830657938932E-003    220.0662530672445     
   0.4666666666666667        0.1333333333333333       -7.2048547055499026E-002 
   3.4614505509122061E-003   2.3130477108438698E-003    223.5461384682604     
   0.5000000000000000        0.1333333333333333       -7.2889524242245790E-002 
  -6.0284607063634063E-005   3.0442945475675780E-003    225.6656210496865     
   0.5333333333333333        0.1333333333333333       -7.2133750820344636E-002 
  -3.7362152793395174E-003   3.8138286197038529E-003    226.3434286717486     
   0.5666666666666667        0.1333333333333333       -6.9751769837487307E-002 
  -7.3875398698445560E-003   4.5862591332351483E-003    225.4906238804478     
   0.6000000000000000        0.1333333333333333       -6.5792827050803582E-002 
  -1.0806590981813882E-002   5.3199482669801859E-003    223.0352434222760     
   0.6333333333333333        0.1333333333333333       -6.0393180581072479E-002 
  -1.3771568057863653E-002   5.9705800946816406E-003    218.9417231732845     
   0.6666666666666666        0.1333333333333333       -5.3780355079266796E-002 
  -1.6065993634842728E-002   6.4956026813454016E-003    213.2450194232806     
   0.7000000000000000        0.1333333333333333       -4.6264241733948892E-002 
  -1.7499757141194831E-002   6.8613374582234933E-003    205.8595668149631     
   0.7333333333333333        0.1333333333333333       -3.8234559930466538E-002 
  -1.7941415449075269E-002   7.0422511651504916E-003    197.3345030037271     
   0.7666666666666667        0.1333333333333333       -3.0117642257275205E-002 
  -1.7324260916790214E-002   7.0393807674153644E-003    187.0495957095086     
   0.8000000000000000        0.1333333333333333       -2.2370204475722726E-002 
  -1.5688323049362678E-002   6.8612294457542477E-003    176.6062898977541     
   0.8333333333333334        0.1333333333333333       -1.5401816008327190E-002 
  -1.3173217666160515E-002   6.5415608827683108E-003    164.5984621378063     
   0.8666666666666667        0.1333333333333333       -9.5636275622435069E-003 
  -1.0025246447259861E-002   6.1244911668680438E-003    152.0037346335840     
   0.9000000000000000        0.1333333333333333       -5.0813557238371092E-003 
  -6.5986528359027715E-003   5.6720140060512831E-003    139.0687470156824     
   0.9333333333333334        0.1333333333333333       -2.0676273463164120E-003 
  -3.3550659416879433E-003   5.2090658694131185E-003    126.0236977742827     
   0.9666666666666667        0.1333333333333333       -3.9261927415846495E-004 
  -9.0853033090092738E-004   4.8555864689912905E-003    113.0199254933927     
    1.000000000000000        0.1333333333333333         0.000000000000000      
    0.000000000000000        4.4350660493858128E-003    100.0000000000000     
    0.000000000000000        0.1666666666666667         0.000000000000000      
    0.000000000000000        2.2959154636044824E-003    100.0000000000000     
   3.3333333333333333E-002   0.1666666666666667       -1.0822510998229019E-003 
   5.2565797286314754E-003   1.1669305370371533E-003    114.1078149526406     
   6.6666666666666666E-002   0.1666666666666667       -4.8462933716980272E-003 
   1.0572448827970047E-002   7.0776429228368418E-004    128.4557480124057     
   0.1000000000000000        0.1666666666666667       -1.0269602854494131E-002 
   1.5295667535925735E-002   2.1748149286913420E-004    142.7488568909256     
   0.1333333333333333        0.1666666666666667       -1.7109220313114019E-002 
   1.9065713229639326E-002  -7.7721995820687612E-005    156.6958928265922     
   0.1666666666666667        0.1666666666666667       -2.4907550754871447E-002 
   2.1766922239154843E-002  -2.8940682159762259E-004    170.0077263503661     
   0.2000000000000000        0.1666666666666667       -3.3325514614399795E-002 
   2.3401242019315007E-002  -3.9132538754565007E-004    182.0984436865062     
   0.2333333333333333        0.1666666666666667       -4.2042944831875047E-002 
   2.4035865264177385E-002  -4.1841595831716271E-004    194.3717081677406     
   0.2666666666666667        0.1666666666666667       -5.0710895605178642E-002 
   2.3723534409817528E-002  -3.4149701423921805E-004    203.1990680536948     
   0.3000000000000000        0.1666666666666667       -5.9115946916528286E-002 
   2.2546427165358946E-002  -1.6893919564465299E-004    219.1162218584942     
   0.3333333333333333        0.1666666666666667       -6.6886737541427169E-002 
   2.0523737589186138E-002   6.9224164764594654E-005    229.0022245927420     
   0.3666666666666666        0.1666666666666667       -7.3808158056989620E-002 
   1.7740771102129831E-002   4.1113863372504962E-004    238.3336265579795     
   0.4000000000000000        0.1666666666666667       -7.9609957913694712E-002 
   1.4220147976887825E-002   8.4194125961688845E-004    245.0740093707149     
   0.4333333333333334        0.1666666666666667       -8.4070609843258162E-002 
   1.0027336508630210E-002   1.3709824511057604E-003    250.3451502180000     
   0.4666666666666667        0.1666666666666667       -8.6974806839111629E-002 
   5.2562359011086024E-003   1.9905312085249658E-003    253.8965665952459     
   0.5000000000000000        0.1666666666666667       -8.8151414752592430E-002 
   5.4332062121445582E-005   2.6878377825454822E-003    255.8058304862147     
   0.5333333333333333        0.1666666666666667       -8.7480646642805179E-002 
  -5.3760642354328484E-003   3.4385059553447756E-003    256.0072466164036     
   0.5666666666666667        0.1666666666666667       -8.4913097451835645E-002 
  -1.0780249678095771E-002   4.2085321089994944E-003    254.4752083316749     
   0.6000000000000000        0.1666666666666667       -8.0484090253423332E-002 
  -1.5863051878192595E-002   4.9551486856248507E-003    251.1811193823853     
   0.6333333333333333        0.1666666666666667       -7.4324984059340501E-002 
  -2.0306908709105457E-002   5.6305878599125407E-003    246.0465567236584     
   0.6666666666666666        0.1666666666666667       -6.6668147674476014E-002 
  -2.3799136434857520E-002   6.1876805336678400E-003    239.0525885475936     
   0.7000000000000000        0.1666666666666667       -5.7856321440136339E-002 
  -2.6064765287264684E-002   6.5821108964218330E-003    230.5791075785685     
   0.7333333333333333        0.1666666666666667       -4.8299767864096184E-002 
  -2.6884366770949651E-002   6.7954226079369106E-003    219.2120463405417     
   0.7666666666666667        0.1666666666666667       -3.8532942591476924E-002 
  -2.6171898988602844E-002   6.8032296501361412E-003    209.1836242658290     
   0.8000000000000000        0.1666666666666667       -2.9056187688391567E-002 
  -2.3956563359101804E-002   6.6112476921324865E-003    195.6260460862787     
   0.8333333333333334        0.1666666666666667       -2.0387020795575306E-002 
  -2.0433566358440562E-002   6.2615779952417648E-003    180.9743550141423     
   0.8666666666666667        0.1666666666666667       -1.2963750619102000E-002 
  -1.5940453976695031E-002   5.7888239101008508E-003    165.3846122883752     
   0.9000000000000000        0.1666666666666667       -7.0992747312071166E-003 
  -1.0963434285404227E-002   5.2626392409884648E-003    149.2649443371952     
   0.9333333333333334        0.1666666666666667       -3.0039348235108300E-003 
  -6.1211019143234801E-003   4.6886354224543693E-003    132.9122897328391     
   0.9666666666666667        0.1666666666666667       -5.9555406921463227E-004 
  -2.1826943071561102E-003   4.2347460052858058E-003    116.4937250973422     
    1.000000000000000        0.1666666666666667         0.000000000000000      