 VARIABLES="X" "Y" "U<sub>x" "V<sub>y" "Pressure" "Temprature"
 Zone i=           31 ,j=           31 ,k=1,f=point
    0.000000000000000         0.000000000000000         0.000000000000000      
    0.000000000000000         0.000000000000000         500.0000000000000     
   3.3333333333333333E-002    0.000000000000000         0.000000000000000      
   1.5955430519151509E-006  -1.2763871130074372E-004    500.0000000000000     
   6.6666666666666666E-002    0.000000000000000       -7.9768128716915332E-007 
   2.6794652969156431E-007   3.5275626687139485E-004    500.0000000000000     
   0.1000000000000000         0.000000000000000        2.2043687144611364E-006 
  -7.3515237448877485E-007   1.5519149626856850E-003    500.0000000000000     
   0.1333333333333333         0.000000000000000         0.000000000000000      
  -3.2348485657107960E-006   3.4308885008064770E-003    500.0000000000000     
   0.1666666666666667         0.000000000000000         0.000000000000000      
    0.000000000000000        5.9380765193420559E-003    500.0000000000000     
   0.2000000000000000         0.000000000000000         0.000000000000000      
    0.000000000000000        9.0505548018539831E-003    500.0000000000000     
   0.2333333333333333         0.000000000000000         0.000000000000000      
    0.000000000000000        1.2726669294605655E-002    500.0000000000000     
   0.2666666666666667         0.000000000000000         0.000000000000000      
    0.000000000000000        1.6920684390865606E-002    500.0000000000000     
   0.3000000000000000         0.000000000000000         0.000000000000000      
    0.000000000000000        2.1581564327678878E-002    500.0000000000000     
   0.3333333333333333         0.000000000000000         0.000000000000000      
    0.000000000000000        2.6653116974783536E-002    500.0000000000000     
   0.3666666666666666         0.000000000000000         0.000000000000000      
    0.000000000000000        3.2074544865373929E-002    500.0000000000000     
   0.4000000000000000         0.000000000000000         0.000000000000000      
    0.000000000000000        3.7781207613526831E-002    500.0000000000000     
   0.4333333333333334         0.000000000000000         0.000000000000000      
    0.000000000000000        4.3705348874228986E-002    500.0000000000000     
   0.4666666666666667         0.000000000000000         0.000000000000000      
    0.000000000000000        4.9776841353999464E-002    500.0000000000000     
   0.5000000000000000         0.000000000000000         0.000000000000000      
    0.000000000000000        5.5923925408482129E-002    500.0000000000000     
   0.5333333333333333         0.000000000000000         0.000000000000000      
    0.000000000000000        6.2073948522174176E-002    500.0000000000000     
   0.5666666666666667         0.000000000000000         0.000000000000000      
    0.000000000000000        6.8154105596898343E-002    500.0000000000000     
   0.6000000000000000         0.000000000000000         0.000000000000000      
    0.000000000000000        7.4092185867215665E-002    500.0000000000000     
   0.6333333333333333         0.000000000000000         0.000000000000000      
    0.000000000000000        7.9817325710763859E-002    500.0000000000000     
   0.6666666666666666         0.000000000000000         0.000000000000000      
    0.000000000000000        8.5260779541660503E-002    500.0000000000000     
   0.7000000000000000         0.000000000000000         0.000000000000000      
    0.000000000000000        9.0356671350664497E-002    500.0000000000000     
   0.7333333333333333         0.000000000000000         0.000000000000000      
    0.000000000000000        9.5042817106268621E-002    500.0000000000000     
   0.7666666666666667         0.000000000000000         0.000000000000000      
    0.000000000000000        9.9261285186949016E-002    500.0000000000000     
   0.8000000000000000         0.000000000000000         0.000000000000000      
    0.000000000000000        0.1029595588993163         500.0000000000000     
   0.8333333333333334         0.000000000000000         0.000000000000000      
    0.000000000000000        0.1060893648268556         500.0000000000000     
   0.8666666666666667         0.000000000000000         0.000000000000000      
    0.000000000000000        0.1086110453287218         500.0000000000000     
   0.9000000000000000         0.000000000000000         0.000000000000000      
    0.000000000000000        0.1104760907465518         500.0000000000000     
   0.9333333333333334         0.000000000000000         0.000000000000000      
    0.000000000000000        0.1116404186901976         500.0000000000000     
   0.9666666666666667         0.000000000000000         0.000000000000000      
    0.000000000000000        0.1116942527314955         500.0000000000000     
    1.000000000000000         0.000000000000000         0.000000000000000      
    0.000000000000000        0.1107171770180532         500.0000000000000     
    0.000000000000000        3.3333333333333333E-002   2.6594078864888935E-007 
  -2.5995877374705035E-007   1.3408017009843267E-004    100.0000000000000     
   3.3333333333333333E-002   3.3333333333333333E-002  -3.1518922389871799E-004 
   3.2762287958904940E-004   1.2432508059709867E-005    334.2884105494856     
   6.6666666666666666E-002   3.3333333333333333E-002  -1.0177387392380588E-003 
   3.9710855395690310E-004   6.1561990469245255E-004    395.4636418032946     
   0.1000000000000000        3.3333333333333333E-002  -1.7399411559417511E-003 
   3.9956770055374975E-004   1.8213264088697187E-003    426.1220540547291     
   0.1333333333333333        3.3333333333333333E-002  -2.4635713240115584E-003 
   3.8656666710745643E-004   3.6933483446552002E-003    443.1549436998966     
   0.1666666666666667        3.3333333333333333E-002  -3.1542558876300891E-003 
   3.6671929591898219E-004   6.1915644928020692E-003    453.5436659318606     
   0.2000000000000000        3.3333333333333333E-002  -3.8071068251630093E-003 
   3.4305706366212545E-004   9.2890671919851845E-003    460.1084253655519     
   0.2333333333333333        3.3333333333333333E-002  -4.4128338431077500E-003 
   3.1557645256761145E-004   1.2946067358497555E-002    464.2690600282900     
   0.2666666666666667        3.3333333333333333E-002  -4.9648518259230619E-003 
   2.8450122508308080E-004   1.7118544316600842E-002    466.8256932379133     
   0.3000000000000000        3.3333333333333333E-002  -5.4567016690610154E-003 
   2.5022394402491861E-004   2.1755597392521819E-002    468.2686432834024     
   0.3333333333333333        3.3333333333333333E-002  -5.8829166852037143E-003 
   2.1315425716000240E-004   2.6801382426715981E-002    468.9150694921743     
   0.3666666666666666        3.3333333333333333E-002  -6.2387549705326699E-003 
   1.7374002553568893E-004   3.2195389638378653E-002    468.9828348657716     
   0.4000000000000000        3.3333333333333333E-002  -6.5203253147381309E-003 
   1.3242953489651975E-004   3.7873299944350645E-002    468.6237115047506     
   0.4333333333333334        3.3333333333333333E-002  -6.7245594251758812E-003 
   8.9675559631774174E-005   4.3767672061528130E-002    467.9449051793092     
   0.4666666666666667        3.3333333333333333E-002  -6.8492244883407681E-003 
   4.5929606026596690E-005   4.9808697573372911E-002    467.0207979345899     
   0.5000000000000000        3.3333333333333333E-002  -6.8929176936802384E-003 
   1.6430112264714675E-006   5.5924934957028230E-002    465.9005173974579     
   0.5333333333333333        3.3333333333333333E-002  -6.8550673496930552E-003 
  -4.2732019271029932E-005   6.2044051369925149E-002    464.6123873481734     
   0.5666666666666667        3.3333333333333333E-002  -6.7359366923577801E-003 
  -8.6740037252331712E-005   6.8093562728321302E-002    463.1662136790572     
   0.6000000000000000        3.3333333333333333E-002  -6.5366288815457592E-003 
  -1.2992111900129731E-004   7.4001583900531284E-002    461.5535695007759     
   0.6333333333333333        3.3333333333333333E-002  -6.2591034522202563E-003 
  -1.7180930113435040E-004   7.9697573874035088E-002    459.7457642971440     
   0.6666666666666666        3.3333333333333333E-002  -5.9061620429856033E-003 
  -2.1193965005913412E-004   8.5113125345612925E-002    457.6887994661121     
   0.7000000000000000        3.3333333333333333E-002  -5.4815114155780361E-003 
  -2.4984376034002599E-004   9.0182644240539830E-002    455.2931404800647     
   0.7333333333333333        3.3333333333333333E-002  -4.9895441619677260E-003 
  -2.8510799745522247E-004   9.4844349913678266E-002    452.4160400014019     
   0.7666666666666667        3.3333333333333333E-002  -4.4358518277830073E-003 
  -3.1729417016500115E-004   9.9040213770617516E-002    448.8253181289991     
   0.8000000000000000        3.3333333333333333E-002  -3.8252926917851397E-003 
  -3.4640783545940822E-004   0.1027187888162273         444.1383682567627     
   0.8333333333333334        3.3333333333333333E-002  -3.1668482737517850E-003 
  -3.7199731429004022E-004   0.1058285483413653         437.6710246067736     
   0.8666666666666667        3.3333333333333333E-002  -2.4569083249321600E-003 
  -3.9730976499884085E-004   0.1083376219984835         428.1629396730675     
   0.9000000000000000        3.3333333333333333E-002  -1.7246627137117207E-003 
  -4.1999472124334443E-004   0.1101684330234261         412.9046179793352     
   0.9333333333333334        3.3333333333333333E-002  -8.9067681433039540E-004 
  -4.7443543588105049E-004   0.1113739214408723         385.2693324511210     
   0.9666666666666667        3.3333333333333333E-002  -2.4270842735335426E-004 
  -4.7707810602097962E-004   0.1115889943055880         328.2622494013464     
    1.000000000000000        3.3333333333333333E-002   4.6335720870195249E-004 
   9.2470552694703424E-004   0.1117753303265717         100.0000000000000     
    0.000000000000000        6.6666666666666666E-002  -1.4871933009006020E-006 
   2.0928087385779406E-006  -2.9534281962950823E-004    100.0000000000000     
   3.3333333333333333E-002   6.6666666666666666E-002  -4.0508593225481308E-004 
   1.0420061420149574E-003  -5.4709036205137713E-004    222.7360318843590     
   6.6666666666666666E-002   6.6666666666666666E-002  -1.3002479358789367E-003 
   1.2552310970285511E-003   7.0721595139465517E-005    314.5107294931454     
   0.1000000000000000        6.6666666666666666E-002  -2.2059942929601698E-003 
   1.2711779548108862E-003   1.2886734748554360E-003    362.9658557142509     
   0.1333333333333333        6.6666666666666666E-002  -3.1181472842810851E-003 
   1.2325765130446458E-003   3.1850499949690305E-003    392.5279216438628     
   0.1666666666666667        6.6666666666666666E-002  -3.9897586802746963E-003 
   1.1729665877715672E-003   5.7075411625304318E-003    411.1866225313465     
   0.2000000000000000        6.6666666666666666E-002  -4.8147025927388169E-003 
   1.0979992208850311E-003   8.8363554912814276E-003    423.1946593556384     
   0.2333333333333333        6.6666666666666666E-002  -5.5799238435040510E-003 
   1.0101121701460150E-003   1.2529478958714304E-002    430.8381263007212     
   0.2666666666666667        6.6666666666666666E-002  -6.2772469780601565E-003 
   9.1060210407075499E-004   1.6742923438852728E-002    435.5043866919291     
   0.3000000000000000        6.6666666666666666E-002  -6.8983821573320898E-003 
   8.0079178492137998E-004   2.1425128118005815E-002    438.0506565756132     
   0.3333333333333333        6.6666666666666666E-002  -7.4364657576603569E-003 
   6.8205972300930081E-004   2.6519753340665173E-002    439.0700450671359     
   0.3666666666666666        6.6666666666666666E-002  -7.8855383436231240E-003 
   5.5583107493720793E-004   3.1965687906458130E-002    438.9692809185874     
   0.4000000000000000        6.6666666666666666E-002  -8.2407368873024314E-003 
   4.2355148517244317E-004   3.7698025223330309E-002    438.0403372044238     
   0.4333333333333334        6.6666666666666666E-002  -8.4982347465875231E-003 
   2.8666962756962108E-004   4.3648724959719637E-002    436.4910425260066     
   0.4666666666666667        6.6666666666666666E-002  -8.6552571280445433E-003 
   1.4663086716192169E-004   4.9747382995918001E-002    434.4678376313846     
   0.5000000000000000        6.6666666666666666E-002  -8.7100679031463131E-003 
   4.8774751728149554E-006   5.5921961887692301E-002    432.0688946680912     
   0.5333333333333333        6.6666666666666666E-002  -8.6619688776261965E-003 
  -1.3714596258276160E-004   6.2099532108899229E-002    429.3525557036849     
   0.5666666666666667        6.6666666666666666E-002  -8.5113031304805045E-003 
  -2.7798530149956968E-004   6.8207008888653289E-002    426.3418195200090     
   0.6000000000000000        6.6666666666666666E-002  -8.2594624474128971E-003 
  -4.1617021844360960E-004   7.4171900729210330E-002    423.0252264957858     
   0.6333333333333333        6.6666666666666666E-002  -7.9089103396544173E-003 
  -5.5021351962728827E-004   7.9923052998382010E-002    419.3536769216047     
   0.6666666666666666        6.6666666666666666E-002  -7.4631721112655572E-003 
  -6.7861555167029390E-004   8.5391446261454687E-002    415.2318617408700     
   0.7000000000000000        6.6666666666666666E-002  -6.9269231005089638E-003 
  -7.9989560938721843E-004   9.0510871984100641E-002    410.5013947867610     
   0.7333333333333333        6.6666666666666666E-002  -6.3057434305315609E-003 
  -9.1261401214879853E-004   9.5219013608645903E-002    404.9102950561871     
   0.7666666666666667        6.6666666666666666E-002  -5.6068291221013792E-003 
  -1.0155518949163883E-003   9.9457277887236295E-002    398.0576408354301     
   0.8000000000000000        6.6666666666666666E-002  -4.8366759857572028E-003 
  -1.1076633685118199E-003   0.1031743787105135         389.2922696523445     
   0.8333333333333334        6.6666666666666666E-002  -4.0080492450924859E-003 
  -1.1892039078344593E-003   0.1063183066036074         377.4982178860313     
   0.8666666666666667        6.6666666666666666E-002  -3.1190818109266593E-003 
  -1.2599799332914129E-003   0.1088638891350297         360.7274262695410     
   0.9000000000000000        6.6666666666666666E-002  -2.2221578488999558E-003 
  -1.3260080884189838E-003   0.1107328487841599         335.0149350770090     
   0.9333333333333334        6.6666666666666666E-002  -1.2389418293856981E-003 
  -1.3569065425038899E-003   0.1120511681985713         293.0725027718418     
   0.9666666666666667        6.6666666666666666E-002  -6.5229476298966850E-004 
  -1.1925421035387262E-003   0.1124084969520006         210.7743092828472     
    1.000000000000000        6.6666666666666666E-002   4.6501110746540570E-004 
   9.3038122476377019E-004   0.1133015120985834         100.0000000000000     
    0.000000000000000        0.1000000000000000        6.1481591639351388E-007 
  -1.8466355760362419E-006  -1.4512222645675151E-003    100.0000000000000     
   3.3333333333333333E-002   0.1000000000000000       -4.3199662097900886E-004 
   1.8340639069869969E-003  -1.7320323640025418E-003    187.2996987693980     
   6.6666666666666666E-002   0.1000000000000000       -1.3975156253318718E-003 
   2.1930012622294807E-003  -1.1006314420371824E-003    260.6225133021993     
   0.1000000000000000        0.1000000000000000       -2.3701656905908666E-003 
   2.2208026080459634E-003   1.4290598439264048E-004    314.2875645678804     
   0.1333333333333333        0.1000000000000000       -3.3481621525792283E-003 
   2.1564002124798889E-003   2.0814067339070489E-003    349.9228688639308     
   0.1666666666666667        0.1000000000000000       -4.2824309457670231E-003 
   2.0525113403544759E-003   4.6590708313516581E-003    373.7775248648661     
   0.2000000000000000        0.1000000000000000       -5.1665272427304379E-003 
   1.9215684707496643E-003   7.8550614163858893E-003    389.5257781511162     
   0.2333333333333333        0.1000000000000000       -5.9865216083528280E-003 
   1.7676651563017253E-003   1.1626704507663815E-002    399.7596606993101     
   0.2666666666666667        0.1000000000000000       -6.7334639684896655E-003 
   1.5933040175662250E-003   1.5928962567427346E-002    405.9471215069216     
   0.3000000000000000        0.1000000000000000       -7.3985489255224092E-003 
   1.4009308613571806E-003   2.0709160510046915E-002    409.2378875002577     
   0.3333333333333333        0.1000000000000000       -7.9744611746522479E-003 
   1.1929955034304606E-003   2.5909712935081639E-002    410.3826076867874     
   0.3666666666666666        0.1000000000000000       -8.4549167059967869E-003 
   9.7201974279898060E-004   3.1468239298494335E-002    409.9454640484826     
   0.4000000000000000        0.1000000000000000       -8.8348017754302042E-003 
   7.4053549690197937E-004   3.7318540078730464E-002    408.3307924035827     
   0.4333333333333334        0.1000000000000000       -9.1101125827384756E-003 
   5.0107218129863353E-004   4.3391282952911663E-002    405.8354482589148     
   0.4666666666666667        0.1000000000000000       -9.2779536037715885E-003 
   2.5614384676620464E-004   4.9614775802430719E-002    402.6714203241299     
   0.5000000000000000        0.1000000000000000       -9.3365171330106831E-003 
   8.2537074280969968E-006   5.5915697746898835E-002    398.9835061444784     
   0.5333333333333333        0.1000000000000000       -9.2850768384332080E-003 
  -2.4009410199307351E-004   6.2219834702295189E-002    394.8607570368941     
   0.5666666666666667        0.1000000000000000       -9.1239893103245012E-003 
  -4.8637854960123246E-004   6.8452810231706185E-002    390.3430037745510     
   0.6000000000000000        0.1000000000000000       -8.8547069913825736E-003 
  -7.2804683882761369E-004   7.4540825251906764E-002    385.4229148474506     
   0.6333333333333333        0.1000000000000000       -8.4798025005418994E-003 
  -9.6250819033548798E-004   8.0411407702038223E-002    380.0431141776943     
   0.6666666666666666        0.1000000000000000       -8.0029947998069128E-003 
  -1.1871366791897124E-003   8.5994190972849202E-002    374.0870068300926     
   0.7000000000000000        0.1000000000000000       -7.4291914617017176E-003 
  -1.3993088623798402E-003   9.1221687386190548E-002    367.3597832880494     
   0.7333333333333333        0.1000000000000000       -6.7644925992247492E-003 
  -1.5964269009351925E-003   9.6030163537692614E-002    359.5568106734100     
   0.7666666666666667        0.1000000000000000       -6.0163121458220933E-003 
  -1.7761162753616934E-003   0.1003603177033527         350.2011224683387     
   0.8000000000000000        0.1000000000000000       -5.1932570575360520E-003 
  -1.9360239774679766E-003   0.1041586540232093         338.5610049532694     
   0.8333333333333334        0.1000000000000000       -4.3060723707492709E-003 
  -2.0748456735438250E-003   0.1073771583281732         323.4396581458356     
   0.8666666666666667        0.1000000000000000       -3.3672295817312233E-003 
  -2.1880680466436699E-003   0.1099786939651153         302.9050417937868     
   0.9000000000000000        0.1000000000000000       -2.3998113400365245E-003 
  -2.2702939794418996E-003   0.1119289110627757         273.8231624223469     
   0.9333333333333334        0.1000000000000000       -1.4412619658919607E-003 
  -2.2435740906865519E-003   0.1132355654660029         230.4959647928617     
   0.9666666666666667        0.1000000000000000       -6.0472015677631534E-004 
  -1.8139820913453666E-003   0.1138781754434843         171.3423166173814     
    1.000000000000000        0.1000000000000000         0.000000000000000      
    0.000000000000000        0.1141036356394414         100.0000000000000     
    0.000000000000000        0.1333333333333333         0.000000000000000      
    0.000000000000000       -3.3251209518754240E-003    100.0000000000000     
   3.3333333333333333E-002   0.1333333333333333       -4.4976461949889734E-004 
   2.6749822745970268E-003  -3.6227184058754878E-003    168.1553875083707     
   6.6666666666666666E-002   0.1333333333333333       -1.4607353054289234E-003 
   3.1922147791350474E-003  -2.9726398521868302E-003    229.3632361074085     
   0.1000000000000000        0.1333333333333333       -2.4796504246556005E-003 
   3.2304317706514755E-003  -1.6882648269946031E-003    278.7025675321985     
   0.1333333333333333        0.1333333333333333       -3.5027511837843546E-003 
   3.1368926111948066E-003   3.1620510815807919E-004    315.5613454824216     
   0.1666666666666667        0.1333333333333333       -4.4791387770076923E-003 
   2.9860344115833419E-003   2.9808341756689268E-003    341.6450531855149     
   0.2000000000000000        0.1333333333333333       -5.4025091396309949E-003 
   2.7953314467217545E-003   6.2843571260029372E-003    359.5325170363844     
   0.2333333333333333        0.1333333333333333       -6.2582844473702548E-003 
   2.5709646802850928E-003   1.0181647743898211E-002    371.1699801336075     
   0.2666666666666667        0.1333333333333333       -7.0374611854201333E-003 
   2.3169163408957353E-003   1.4626306429074358E-002    378.3201130043662     
   0.3000000000000000        0.1333333333333333       -7.7307734542908504E-003 
   2.0367091529547242E-003   1.9563521034619256E-002    381.9444319298030     
   0.3333333333333333        0.1333333333333333       -8.3308030373281019E-003 
   1.7340336463649898E-003   2.4933761778848838E-002    382.9784570999753     
   0.3666666666666666        0.1333333333333333       -8.8311285222167860E-003 
   1.4125609431986008E-003   3.0672561304441931E-002    382.0561467327580     
   0.4000000000000000        0.1333333333333333       -9.2265914045685030E-003 
   1.0759815096467813E-003   3.6711657066300751E-002    379.6768419180899     
   0.4333333333333334        0.1333333333333333       -9.5131631538123134E-003 
   7.2795053068508647E-004   4.2979651951376846E-002    376.2108332299666     
   0.4666666666666667        0.1333333333333333       -9.6879428187385073E-003 
   3.7208576582961595E-004   4.9402808850903750E-002    371.9277694489411     
   0.5000000000000000        0.1333333333333333       -9.7491173832753020E-003 
   1.1976498445702027E-005   5.5905773002391308E-002    367.0163324888659     
   0.5333333333333333        0.1333333333333333       -9.6959489236476577E-003 
  -3.4879236554687023E-004   6.2412298421154547E-002    361.5970874678402     
   0.5666666666666667        0.1333333333333333       -9.5287732147386495E-003 
  -7.0661046932999369E-004   6.8845964224377290E-002    355.7309392530413     
   0.6000000000000000        0.1333333333333333       -9.2490181726298370E-003 
  -1.0578130958886955E-003   7.5130900176918675E-002    349.4229864456382     
   0.6333333333333333        0.1333333333333333       -8.8592380194934470E-003 
  -1.3986625192808216E-003   8.1192531706707205E-002    342.6212453893579     
   0.6666666666666666        0.1333333333333333       -8.3631637337788240E-003 
  -1.7253443154433203E-003   8.6958351058661149E-002    335.2095301276521     
   0.7000000000000000        0.1333333333333333       -7.7657552749741000E-003 
  -2.0339952172539239E-003   9.2358738425553574E-002    326.9932678050660     
   0.7333333333333333        0.1333333333333333       -7.0732892392594776E-003 
  -2.3207347539661513E-003   9.7327784252173088E-002    317.6674711777721     
   0.7666666666666667        0.1333333333333333       -6.2933596785814663E-003 
  -2.5817811547598621E-003   0.1018043030904254         306.7884941513677     
   0.8000000000000000        0.1333333333333333       -5.4352960835941325E-003 
  -2.8133050284651065E-003   0.1057324396163185         293.6505633184061     
   0.8333333333333334        0.1333333333333333       -4.5094651034963485E-003 
  -3.0114719318621616E-003   0.1090639697751429         277.3611825767985     
   0.8666666666666667        0.1333333333333333       -3.5316604229213310E-003 
  -3.1690425670252240E-003   0.1117553522679616         256.3874168681415     
   0.9000000000000000        0.1333333333333333       -2.5129791009189067E-003 
  -3.2662050262473085E-003   0.1137839639761161         228.8334657514253     
   0.9333333333333334        0.1333333333333333       -1.5066590124894932E-003 
  -3.2083976443218892E-003   0.1150988456280101         193.1888108501471     
   0.9666666666666667        0.1333333333333333       -4.9311064997066003E-004 
  -2.6557887529705905E-003   0.1157754632612439         149.3844307623526     
    1.000000000000000        0.1333333333333333         0.000000000000000      
    0.000000000000000        0.1154559883168262         100.0000000000000     
    0.000000000000000        0.1666666666666667         0.000000000000000      
    0.000000000000000       -5.9200101964504001E-003    100.0000000000000     
   3.3333333333333333E-002   0.1666666666666667       -4.7060569715610154E-004 
   3.5517472153844655E-003  -6.2330014240171679E-003    156.3690033897435     
   6.6666666666666666E-002   0.1666666666666667       -1.5305426529066005E-003 
   4.2355995959680350E-003  -5.5542281641555499E-003    208.5865592261607     
   0.1000000000000000        0.1666666666666667       -2.5992282232418797E-003 
   4.2843994990337964E-003  -4.2121327116988218E-003    253.0004774914377     
   0.1333333333333333        0.1666666666666667       -3.6716925646663864E-003 
   4.1594778685368518E-003  -2.1169213228829612E-003    288.2506438368053     
   0.1666666666666667        0.1666666666666667       -4.6941698596090643E-003 
   3.9586229532012039E-003   6.6812007227077055E-004    314.5061657456623     
   0.2000000000000000        0.1666666666666667       -5.6602147493506000E-003 
   3.7049525087145888E-003   4.1199011902239959E-003    333.0174989795233     
   0.2333333333333333        0.1666666666666667       -6.5546834816498003E-003 
   3.4066237876954832E-003   8.1910663101868366E-003    345.2942263813005     
   0.2666666666666667        0.1666666666666667       -7.3682129117848194E-003 
   3.0689871673049772E-003   1.2832177584278525E-002    352.6064248913553     
   0.3000000000000000        0.1666666666666667       -8.0915958322981037E-003 
   2.6970509991544552E-003   1.7986091014288476E-002    356.2616713976727     
   0.3333333333333333        0.1666666666666667       -8.7170937117660267E-003 
   2.2956045491280535E-003   2.3590264713291863E-002    356.9518621544708     
   0.3666666666666666        0.1666666666666667       -9.2383230400448421E-003 
   1.8695971976641025E-003   2.9577434991232044E-002    355.4229657897465     
   0.4000000000000000        0.1666666666666667       -9.6501292171640180E-003 
   1.4238996765045077E-003   3.5876469558786657E-002    352.2386719934158     
   0.4333333333333334        0.1666666666666667       -9.9485363623470074E-003 
   9.6330888933862213E-004   4.2413158212973028E-002    347.8245793434836     
   0.4666666666666667        0.1666666666666667       -1.0130687087595564E-002 
   4.9253940935460843E-004   4.9110980876998812E-002    342.5006937598866     
   0.5000000000000000        0.1666666666666667       -1.0194793490929723E-002 
   1.6247339662251093E-005   5.5891830578122290E-002    336.4957989426370     
   0.5333333333333333        0.1666666666666667       -1.0140108380278021E-002 
  -4.6092799587827045E-004   6.2676715715537443E-002    329.9617020158354     
   0.5666666666666667        0.1666666666666667       -9.9669213659010058E-003 
  -9.3431190461626715E-004   6.9386452159073950E-002    322.9833663964341     
   0.6000000000000000        0.1666666666666667       -9.6765835221033578E-003 
  -1.3991435096212227E-003   7.5942362301534908E-002    315.5848034218298     
   0.6333333333333333        0.1666666666666667       -9.2715541853493622E-003 
  -1.8505367155273954E-003   8.2267004829093243E-002    307.7308516830145     
   0.6666666666666666        0.1666666666666667       -8.7554821026777103E-003 
  -2.2834629783906909E-003   8.8284932045742184E-002    299.3228333040772     
   0.7000000000000000        0.1666666666666667       -8.1332640294386801E-003 
  -2.6927610305338317E-003   9.3923546406756944E-002    290.1902268266161     
   0.7333333333333333        0.1666666666666667       -7.4112306798168248E-003 
  -3.0731929654766407E-003   9.9113882808213358E-002    280.0848157916918     
   0.7666666666666667        0.1666666666666667       -6.5969704219579831E-003 
  -3.4194372614048344E-003   0.1037918831138749         268.6073889964611     
   0.8000000000000000        0.1666666666666667       -5.7002440343668715E-003 
  -3.7262160010577850E-003   0.1078983567352985         255.3285453307290     
   0.8333333333333334        0.1666666666666667       -4.7310111936256678E-003 
  -3.9875053285997513E-003   0.1113831103435338         239.4424641942228     
   0.8666666666666667        0.1666666666666667       -3.7051443505882334E-003 
  -4.1935146921125528E-003   0.1141977551675981         220.1262695661545     
   0.9000000000000000        0.1666666666666667       -2.6301441433972564E-003 
  -4.3178125985182886E-003   0.1163186418289880         196.5588163389230     
   0.9333333333333334        0.1666666666666667       -1.5566127593853716E-003 
  -4.2574568977278406E-003   0.1176820139615658         168.2533192769651     
   0.9666666666666667        0.1666666666666667       -4.7891212806819652E-004 
  -3.5588971711281291E-003   0.1183736510646807         135.6205734149837     
    1.000000000000000        0.1666666666666667         0.000000000000000      