 VARIABLES="X" "Y" "U<sub>x" "V<sub>y" "Pressure" "Temprature"
 Zone i=           31 ,j=           31 ,k=1,f=point
    0.000000000000000         0.000000000000000         0.000000000000000      
    0.000000000000000         0.000000000000000         500.0000000000000     
   3.3333333333333333E-002    0.000000000000000         0.000000000000000      
   1.1556287640602181E-006  -9.2450671055559859E-005    500.0000000000000     
   6.6666666666666666E-002    0.000000000000000       -5.7779198587604058E-007 
   1.9406513071702324E-007  -4.5921943117781862E-004    500.0000000000000     
   0.1000000000000000         0.000000000000000       -2.8697151190224042E-006 
   9.5697198784817965E-007  -9.0107417046467761E-004    500.0000000000000     
   0.1333333333333333         0.000000000000000         0.000000000000000      
   1.8783928103408647E-006  -1.2623572792536362E-003    500.0000000000000     
   0.1666666666666667         0.000000000000000         0.000000000000000      
    0.000000000000000       -1.4741474995636386E-003    500.0000000000000     
   0.2000000000000000         0.000000000000000         0.000000000000000      
    0.000000000000000       -1.5161608741290316E-003    500.0000000000000     
   0.2333333333333333         0.000000000000000         0.000000000000000      
    0.000000000000000       -1.3792744157179208E-003    500.0000000000000     
   0.2666666666666667         0.000000000000000         0.000000000000000      
    0.000000000000000       -1.0645991703029498E-003    500.0000000000000     
   0.3000000000000000         0.000000000000000         0.000000000000000      
    0.000000000000000       -5.7885605968765238E-004    500.0000000000000     
   0.3333333333333333         0.000000000000000         0.000000000000000      
    0.000000000000000        6.9546114092423553E-005    500.0000000000000     
   0.3666666666666666         0.000000000000000         0.000000000000000      
    0.000000000000000        8.6949522294407810E-004    500.0000000000000     
   0.4000000000000000         0.000000000000000         0.000000000000000      
    0.000000000000000        1.8073133162696314E-003    500.0000000000000     
   0.4333333333333334         0.000000000000000         0.000000000000000      
    0.000000000000000        2.8648234985344909E-003    500.0000000000000     
   0.4666666666666667         0.000000000000000         0.000000000000000      
    0.000000000000000        4.0181911037429777E-003    500.0000000000000     
   0.5000000000000000         0.000000000000000         0.000000000000000      
    0.000000000000000        5.2367580195768265E-003    500.0000000000000     
   0.5333333333333333         0.000000000000000         0.000000000000000      
    0.000000000000000        6.4827853700101757E-003    500.0000000000000     
   0.5666666666666667         0.000000000000000         0.000000000000000      
    0.000000000000000        7.7121746813701170E-003    500.0000000000000     
   0.6000000000000000         0.000000000000000         0.000000000000000      
    0.000000000000000        8.8763863787501701E-003    500.0000000000000     
   0.6333333333333333         0.000000000000000         0.000000000000000      
    0.000000000000000        9.9255098058283510E-003    500.0000000000000     
   0.6666666666666666         0.000000000000000         0.000000000000000      
    0.000000000000000        1.0812305381629939E-002    500.0000000000000     
   0.7000000000000000         0.000000000000000         0.000000000000000      
    0.000000000000000        1.1496834112438207E-002    500.0000000000000     
   0.7333333333333333         0.000000000000000         0.000000000000000      
    0.000000000000000        1.1951078678552492E-002    500.0000000000000     
   0.7666666666666667         0.000000000000000         0.000000000000000      
    0.000000000000000        1.2163153269306459E-002    500.0000000000000     
   0.8000000000000000         0.000000000000000         0.000000000000000      
    0.000000000000000        1.2140175846361975E-002    500.0000000000000     
   0.8333333333333334         0.000000000000000         0.000000000000000      
    0.000000000000000        1.1909772689433152E-002    500.0000000000000     
   0.8666666666666667         0.000000000000000         0.000000000000000      
    0.000000000000000        1.1521624596768875E-002    500.0000000000000     
   0.9000000000000000         0.000000000000000         0.000000000000000      
    0.000000000000000        1.1045573428180317E-002    500.0000000000000     
   0.9333333333333334         0.000000000000000         0.000000000000000      
    0.000000000000000        1.0583462040104344E-002    500.0000000000000     
   0.9666666666666667         0.000000000000000         0.000000000000000      
    0.000000000000000        1.0237859216792497E-002    500.0000000000000     
    1.000000000000000         0.000000000000000         0.000000000000000      
    0.000000000000000        1.0137573966455381E-002    500.0000000000000     
    0.000000000000000        3.3333333333333333E-002   1.9260359004428263E-007 
  -1.8827115302229272E-007   9.2958197141845749E-005    100.0000000000000     
   3.3333333333333333E-002   3.3333333333333333E-002  -2.6050107915808440E-005 
   2.5825392822828764E-005   2.7448342968012829E-007    335.6981505642501     
   6.6666666666666666E-002   3.3333333333333333E-002  -4.0917294085826274E-004 
   2.3603940532903120E-004  -2.0747280340634335E-004    398.7039126824578     
   0.1000000000000000        3.3333333333333333E-002  -1.2648573792514728E-003 
   4.4305004540372246E-004  -4.4967490564546710E-004    430.4229991561568     
   0.1333333333333333        3.3333333333333333E-002  -2.5340084090206376E-003 
   6.0070226494518390E-004  -6.4557773055575710E-004    447.1449349658629     
   0.1666666666666667        3.3333333333333333E-002  -4.1069977721086637E-003 
   7.0886982865591775E-004  -7.4721041797377213E-004    455.8167211453422     
   0.2000000000000000        3.3333333333333333E-002  -5.8742246591790602E-003 
   7.6948846651464617E-004  -7.2354407936949710E-004    459.3510551308835     
   0.2333333333333333        3.3333333333333333E-002  -7.7364857146402380E-003 
   7.9097014672539691E-004  -5.6172385958175633E-004    459.6761435976511     
   0.2666666666666667        3.3333333333333333E-002  -9.6090851927307114E-003 
   7.7919131248101420E-004  -2.5769526261431284E-004    457.9172426097288     
   0.3000000000000000        3.3333333333333333E-002  -1.1419016338126087E-002 
   7.3927468042395725E-004   1.8732547885861900E-004    454.9900697205776     
   0.3333333333333333        3.3333333333333333E-002  -1.3101671756222075E-002 
   6.7371296347879526E-004   7.6742022253102442E-004    451.4511873365343     
   0.3666666666666666        3.3333333333333333E-002  -1.4598194978130108E-002 
   5.8459690105442297E-004   1.4741380754159773E-003    447.7000849669306     
   0.4000000000000000        3.3333333333333333E-002  -1.5853321555560587E-002 
   4.7291772474447266E-004   2.2950256809623273E-003    443.9656870818567     
   0.4333333333333334        3.3333333333333333E-002  -1.6815437393375401E-002 
   3.4017196814429548E-004   3.2138489955775206E-003    440.3887058812137     
   0.4666666666666667        3.3333333333333333E-002  -1.7437681077109076E-002 
   1.8862354698341501E-004   4.2094097695874830E-003    437.0485321153795     
   0.5000000000000000        3.3333333333333333E-002  -1.7680956118873145E-002 
   2.2126367992500599E-005   5.2552984487399474E-003    433.9955314519711     
   0.5333333333333333        3.3333333333333333E-002  -1.7517764675925650E-002 
  -1.5360205530491426E-004   6.3198515437115181E-003    431.2639738998660     
   0.5666666666666667        3.3333333333333333E-002  -1.6936641087621645E-002 
  -3.3085591035116252E-004   7.3669972378312999E-003    428.8784340411144     
   0.6000000000000000        3.3333333333333333E-002  -1.5946282259077817E-002 
  -5.0019878696306902E-004   8.3578839405942275E-003    426.8531165521227     
   0.6333333333333333        3.3333333333333333E-002  -1.4578751981398441E-002 
  -6.5102975101598282E-004   9.2533624949573297E-003    425.1873224362720     
   0.6666666666666666        3.3333333333333333E-002  -1.2890966488201892E-002 
  -7.7243855157863755E-004   1.0017159039871807E-002    423.8563030683501     
   0.7000000000000000        3.3333333333333333E-002  -1.0964060841940267E-002 
  -8.5432867106816481E-004   1.0619353034082683E-002    422.7993532624615     
   0.7333333333333333        3.3333333333333333E-002  -8.8999740683711123E-003 
  -8.8849052703580099E-004   1.1040055185311027E-002    421.8923609860247     
   0.7666666666666667        3.3333333333333333E-002  -6.8158414226412245E-003 
  -8.6991076540335040E-004   1.1272031017322303E-002    420.9161737923038     
   0.8000000000000000        3.3333333333333333E-002  -4.8352896098570403E-003 
  -7.9737333910464691E-004   1.1323687001987454E-002    419.4645569090413     
   0.8333333333333334        3.3333333333333333E-002  -3.0800259960723263E-003 
  -6.7409966120118468E-004   1.1218272554950295E-002    416.8127158372944     
   0.8666666666666667        3.3333333333333333E-002  -1.6553301993275280E-003 
  -5.0853936882654246E-004   1.0998024308605117E-002    411.5691598884222     
   0.9000000000000000        3.3333333333333333E-002  -6.4721537748844234E-004 
  -3.1403846051868904E-004   1.0711552684759706E-002    400.8970294728466     
   0.9333333333333334        3.3333333333333333E-002  -7.6119066008113954E-005 
  -1.1896349107537061E-004   1.0442235258264796E-002    377.7205638257140     
   0.9666666666666667        3.3333333333333333E-002   5.6836905512402639E-005 
   3.1768576948371658E-005   1.0212708246601570E-002    324.9506245143397     
    1.000000000000000        3.3333333333333333E-002   4.2448822371871485E-005 
   8.4689627588061762E-005   1.0223335579035065E-002    100.0000000000000     
    0.000000000000000        6.6666666666666666E-002  -2.9167325546606608E-007 
   6.7820611876207013E-007   4.6926922601336625E-004    100.0000000000000     
   3.3333333333333333E-002   6.6666666666666666E-002  -2.4183789504777327E-004 
   4.1363236827983869E-004   2.0448382045325624E-004    225.8001531324672     
   6.6666666666666666E-002   6.6666666666666666E-002  -1.2648018467963508E-003 
   1.2419685755785973E-003  -7.8619244435157557E-006    321.0092629079243     
   0.1000000000000000        6.6666666666666666E-002  -3.0041050320579717E-003 
   2.0672873543148072E-003  -2.4381973222036720E-004    371.7407991078617     
   0.1333333333333333        6.6666666666666666E-002  -5.4005347136542826E-003 
   2.7212544198129741E-003  -4.0495800789473090E-004    400.8855812709254     
   0.1666666666666667        6.6666666666666666E-002  -8.2815421163276570E-003 
   3.1746685478069845E-003  -4.7548177269155151E-004    415.6312214707569     
   0.2000000000000000        6.6666666666666666E-002  -1.1482328990532741E-002 
   3.4363310742621515E-003  -4.2883307537634155E-004    421.6638040927700     
   0.2333333333333333        6.6666666666666666E-002  -1.4838311982051862E-002 
   3.5284743717501209E-003  -2.5802718234945392E-004    421.3053470451852     
   0.2666666666666667        6.6666666666666666E-002  -1.8205468523858733E-002 
   3.4749718338404042E-003   4.2234208182910149E-005    417.3422683386489     
   0.3000000000000000        6.6666666666666666E-002  -2.1453295428328436E-002 
   3.2924696464917743E-003   4.6926987959948615E-004    411.0907771814260     
   0.3333333333333333        6.6666666666666666E-002  -2.4465774161175152E-002 
   2.9949435312445860E-003   1.0199270344265980E-003    403.8133289980069     
   0.3666666666666666        6.6666666666666666E-002  -2.7135740260904203E-002 
   2.5899936057591812E-003   1.6859673152085485E-003    396.1638726405458     
   0.4000000000000000        6.6666666666666666E-002  -2.9364729361890923E-002 
   2.0850665950851322E-003   2.4573649383748163E-003    388.6044465305340     
   0.4333333333333334        6.6666666666666666E-002  -3.1061769034088572E-002 
   1.4878194096964031E-003   3.3194923623922406E-003    381.3740565286242     
   0.4666666666666667        6.6666666666666666E-002  -3.2146700333316708E-002 
   8.1029746695574314E-004   4.2535006494960770E-003    374.6239998174300     
   0.5000000000000000        6.6666666666666666E-002  -3.2554433383220380E-002 
   7.0691478266786761E-005   5.2353635206421585E-003    368.4490766975839     
   0.5333333333333333        6.6666666666666666E-002  -3.2241419239280755E-002 
  -7.0503758625119694E-004   6.2361080212632548E-003    362.9228438036914     
   0.5666666666666667        6.6666666666666666E-002  -3.1192346180629719E-002 
  -1.4830685670621903E-003   7.2224337370614894E-003    358.1041960167589     
   0.6000000000000000        6.6666666666666666E-002  -2.9426468838942680E-002 
  -2.2228072011636650E-003   8.1582599248022532E-003    354.0357573657976     
   0.6333333333333333        6.6666666666666666E-002  -2.7002200132326303E-002 
  -2.8793321638749879E-003   9.0070375578747714E-003    350.7325673882205     
   0.6666666666666666        6.6666666666666666E-002  -2.4019135678570443E-002 
  -3.4069852196750121E-003   9.7347253885995671E-003    348.1662154617142     
   0.7000000000000000        6.6666666666666666E-002  -2.0616350856631469E-002 
  -3.7637044464513829E-003   1.0313236294802670E-002    346.2325953301181     
   0.7333333333333333        6.6666666666666666E-002  -1.6967081488559372E-002 
  -3.9161237479281028E-003   1.0723550849969496E-002    344.7309948932129     
   0.7666666666666667        6.6666666666666666E-002  -1.3268558947592641E-002 
  -3.8435789391572561E-003   1.0959042989009720E-002    343.2501552559644     
   0.8000000000000000        6.6666666666666666E-002  -9.7284745821921721E-003 
  -3.5426705665495845E-003   1.1026863119197209E-002    341.1360207746023     
   0.8333333333333334        6.6666666666666666E-002  -6.5486274049543084E-003 
  -3.0290398752047800E-003   1.0948445699723162E-002    337.1030808630889     
   0.8666666666666667        6.6666666666666666E-002  -3.9041330667921354E-003 
  -2.3394184740019915E-003   1.0760811146950712E-002    328.9755478842678     
   0.9000000000000000        6.6666666666666666E-002  -1.9292517850904615E-003 
  -1.5393457951223346E-003   1.0506905226592296E-002    312.4100250468933     
   0.9333333333333334        6.6666666666666666E-002  -6.7112261807999324E-004 
  -7.2819153979123427E-004   1.0255806577740100E-002    279.1888817542505     
   0.9666666666666667        6.6666666666666666E-002  -1.2184511614833460E-004 
  -9.4156324959912872E-005   1.0031090120272692E-002    204.6137680730129     
    1.000000000000000        6.6666666666666666E-002   4.2841325544253201E-005 
   8.5400676259393172E-005   1.0011555008076408E-002    100.0000000000000     
    0.000000000000000        0.1000000000000000       -9.7727862800077686E-007 
   2.9335079879938892E-006   9.4057575371432882E-004    100.0000000000000     
   3.3333333333333333E-002   0.1000000000000000       -4.7548743498903218E-004 
   1.3095413851883907E-003   4.4558857213053486E-004    192.5183272989226     
   6.6666666666666666E-002   0.1000000000000000       -2.2065497223881132E-003 
   3.0185747542614007E-003   2.1178935537671158E-004    271.0729364154147     
   0.1000000000000000        0.1000000000000000       -4.8438817838288521E-003 
   4.6358244791640715E-003  -3.4338273018412662E-005    328.0599645469727     
   0.1333333333333333        0.1000000000000000       -8.3007741678215695E-003 
   5.9246342647531784E-003  -1.6881401345180772E-004    362.9255311515170     
   0.1666666666666667        0.1000000000000000       -1.2346555222111061E-002 
   6.8264563955663842E-003  -2.1614052236368128E-004    381.1859451549208     
   0.2000000000000000        0.1000000000000000       -1.6778942524410135E-002 
   7.3481797498480958E-003  -1.5046437726006247E-004    386.1122630160159     
   0.2333333333333333        0.1000000000000000       -2.1396899622241741E-002 
   7.5271598702122038E-003   2.8430812829739562E-005    384.8121090482316     
   0.2666666666666667        0.1000000000000000       -2.6008913335627770E-002 
   7.3992839200198897E-003   3.2109003971148459E-004    377.5959601710381     
   0.3000000000000000        0.1000000000000000       -3.0447244615586407E-002 
   7.0019513791105010E-003   7.2903970981013787E-004    367.9634800473788     
   0.3333333333333333        0.1000000000000000       -3.4553869757282085E-002 
   6.3567167968318246E-003   1.2461496770458274E-003    356.8705067240334     
   0.3666666666666666        0.1000000000000000       -3.8186837405837379E-002 
   5.4851632412111226E-003   1.8688121826816203E-003    345.5579472795676     
   0.4000000000000000        0.1000000000000000       -4.1213097255304969E-002 
   4.4019988635304094E-003   2.5873732589958881E-003    334.5098085562859     
   0.4333333333333334        0.1000000000000000       -4.3512785512471480E-002 
   3.1269091430913723E-003   3.3904597925806922E-003    324.0939779959780     
   0.4666666666666667        0.1000000000000000       -4.4980252194589669E-002 
   1.6868277757071649E-003   4.2615927478199074E-003    314.4783301575899     
   0.5000000000000000        0.1000000000000000       -4.5531359167975731E-002 
   1.2170973115185587E-004   5.1797219628559503E-003    305.7796419132679     
   0.5333333333333333        0.1000000000000000       -4.5110634729569415E-002 
  -1.5134916396620001E-003   6.1186707539245050E-003    298.0753157909081     
   0.5666666666666667        0.1000000000000000       -4.3699806387163496E-002 
  -3.1484621723182394E-003   7.0479000072371546E-003    291.4250083593828     
   0.6000000000000000        0.1000000000000000       -4.1325277904505638E-002 
  -4.6999566964954671E-003   7.9337775663702124E-003    285.8670803597592     
   0.6333333333333333        0.1000000000000000       -3.8063812017914887E-002 
  -6.0766271823798033E-003   8.7417848468130683E-003    281.4102092232787     
   0.6666666666666666        0.1000000000000000       -3.4044722984168871E-002 
  -7.1860803510726233E-003   9.4393706354997629E-003    278.0081670670054     
   0.7000000000000000        0.1000000000000000       -2.9448387757302470E-002 
  -7.9437789574656730E-003   9.9991299821709338E-003    275.5470474521077     
   0.7333333333333333        0.1000000000000000       -2.4498590840452219E-002 
  -8.2817084978085067E-003   1.0402548317221144E-002    273.7389538003777     
   0.7666666666666667        0.1000000000000000       -1.9451905196409380E-002 
  -8.1599033614705458E-003   1.0641584732842121E-002    272.2322974993995     
   0.8000000000000000        0.1000000000000000       -1.4577413404136685E-002 
  -7.5713619802609475E-003   1.0722387585032253E-002    270.0488960274111     
   0.8333333333333334        0.1000000000000000       -1.0137508216803129E-002 
  -6.5506756473304910E-003   1.0663928855480580E-002    266.1879985814175     
   0.8666666666666667        0.1000000000000000       -6.3624343873928419E-003 
  -5.1751143575317522E-003   1.0495107192469202E-002    257.9125722548324     
   0.9000000000000000        0.1000000000000000       -3.4203259552013634E-003 
  -3.5753818704944069E-003   1.0260745028001067E-002    241.5892265816507     
   0.9333333333333334        0.1000000000000000       -1.4128240955419728E-003 
  -1.9403002781028496E-003   9.9903261991423804E-003    210.5254400350156     
   0.9666666666666667        0.1000000000000000       -2.9055466726133022E-004 
  -5.8508439885725813E-004   9.7651444231080173E-003    162.0832379644853     
    1.000000000000000        0.1000000000000000         0.000000000000000      
    0.000000000000000        9.5180473071781544E-003    100.0000000000000     
    0.000000000000000        0.1333333333333333         0.000000000000000      
    0.000000000000000        1.3533076987378636E-003    100.0000000000000     
   3.3333333333333333E-002   0.1333333333333333       -6.8953343665036006E-004 
   2.7151511512308033E-003   6.3619404596146800E-004    175.4940923057038     
   6.6666666666666666E-002   0.1333333333333333       -3.1005038169218228E-003 
   5.6063667593214198E-003   3.4695063591931905E-004    243.7545850871440     
   0.1000000000000000        0.1333333333333333       -6.6113584456815875E-003 
   8.1961750066400826E-003   5.2432893541295305E-005    297.4832378976541     
   0.1333333333333333        0.1333333333333333       -1.1079922955876422E-002 
   1.0234947584918280E-002  -9.0480678515974107E-005    333.2296696949197     
   0.1666666666666667        0.1333333333333333       -1.6203172943256888E-002 
   1.1655240970769337E-002  -1.3767916773119483E-004    351.2549461081801     
   0.2000000000000000        0.1333333333333333       -2.1753075835328425E-002 
   1.2471958678871466E-002  -7.0803531518205689E-005    355.6942072206898     
   0.2333333333333333        0.1333333333333333       -2.7482182591991939E-002 
   1.2732451798082259E-002   1.0649622124258547E-004    348.9737627690854     
   0.2666666666666667        0.1333333333333333       -3.3192462914061867E-002 
   1.2496131637964095E-002   3.9542367985340073E-004    340.1030366387245     
   0.3000000000000000        0.1333333333333333       -3.8666218325966187E-002 
   1.1804587499469428E-002   7.8530720392225111E-004    326.5831100525106     
   0.3333333333333333        0.1333333333333333       -4.3728905210643529E-002 
   1.0706340991778062E-002   1.2821947054173291E-003    312.4068441283064     
   0.3666666666666666        0.1333333333333333       -4.8204272090468639E-002 
   9.2262482141019387E-003   1.8753279169921391E-003    297.8706154383909     
   0.4000000000000000        0.1333333333333333       -5.1938741641796335E-002 
   7.3966956345839054E-003   2.5618696824280781E-003    284.0452591118195     
   0.4333333333333334        0.1333333333333333       -5.4786982716426527E-002 
   5.2491625138152333E-003   3.3312312590321226E-003    271.1853544608004     
   0.4666666666666667        0.1333333333333333       -5.6623602159527976E-002 
   2.8309619885678252E-003   4.1703246121122571E-003    259.5311187326114     
   0.5000000000000000        0.1333333333333333       -5.7346656231767490E-002 
   2.0891919769357246E-004   5.0602281920320551E-003    249.1669120129384     
   0.5333333333333333        0.1333333333333333       -5.6888063551233013E-002 
  -2.5258804278315882E-003   5.9767770385384606E-003    240.1497745912138     
   0.5666666666666667        0.1333333333333333       -5.5222532029496729E-002 
  -5.2583669442743545E-003   6.8905470154549753E-003    232.5037082846874     
   0.6000000000000000        0.1333333333333333       -5.2376605530084074E-002 
  -7.8530139347650612E-003   7.7681776200005642E-003    226.2276834305020     
   0.6333333333333333        0.1333333333333333       -4.8435430734094564E-002 
  -1.0161545402003485E-002   8.5744824789163905E-003    221.2923849370304     
   0.6666666666666666        0.1333333333333333       -4.3546845133955306E-002 
  -1.2033907422425801E-002   9.2752832472155228E-003    217.6420269649426     
   0.7000000000000000        0.1333333333333333       -3.7918608213498364E-002 
  -1.3331752427817142E-002   9.8415176383841625E-003    215.1030730714485     
   0.7333333333333333        0.1333333333333333       -3.1815005365771323E-002 
  -1.3944948261439201E-002   1.0250436408539924E-002    213.5231536978126     
   0.7666666666666667        0.1333333333333333       -2.5537420232155980E-002 
  -1.3803407756560436E-002   1.0493655155851907E-002    212.1085011487642     
   0.8000000000000000        0.1333333333333333       -1.9415972041295419E-002 
  -1.2898433494169916E-002   1.0572568471044461E-002    211.0960975805674     
   0.8333333333333334        0.1333333333333333       -1.3762720205025714E-002 
  -1.1283919823600925E-002   1.0504615945040794E-002    208.1369990596088     
   0.8666666666666667        0.1333333333333333       -8.8663812146771177E-003 
  -9.0856487079289238E-003   1.0314752603347717E-002    201.8613073172544     
   0.9000000000000000        0.1333333333333333       -4.9385663887725360E-003 
  -6.5068029122200572E-003   1.0049721879027425E-002    189.5146309967337     
   0.9333333333333334        0.1333333333333333       -2.1415157787921650E-003 
  -3.8339668476694332E-003   9.7138396765878415E-003    168.4791292940687     
   0.9666666666666667        0.1333333333333333       -4.4171632864861915E-004 
  -1.4858889535900052E-003   9.4306463506683962E-003    137.6834289579896     
    1.000000000000000        0.1333333333333333         0.000000000000000      
    0.000000000000000        8.9670673747997542E-003    100.0000000000000     
    0.000000000000000        0.1666666666666667         0.000000000000000      
    0.000000000000000        1.6298795755399051E-003    100.0000000000000     
   3.3333333333333333E-002   0.1666666666666667       -8.8376570777848828E-004 
   4.5899662222959091E-003   7.1126483911221469E-004    165.5420142153464     
   6.6666666666666666E-002   0.1666666666666667       -3.9255425862148152E-003 
   8.9526569068773994E-003   3.6361612058796917E-004    226.3755068077374     
   0.1000000000000000        0.1666666666666667       -8.2631824008138743E-003 
   1.2677399172333790E-002   1.4837742768067010E-005    275.9447509166973     
   0.1333333333333333        0.1666666666666667       -1.3689315843663789E-002 
   1.5551755221877885E-002  -1.4555710067207288E-004    309.4066411734327     
   0.1666666666666667        0.1666666666666667       -1.9827813204116050E-002 
   1.7530805456572426E-002  -2.0425715801666906E-004    325.5113203888624     
   0.2000000000000000        0.1666666666666667       -2.6409062306683054E-002 
   1.8648265170169119E-002  -1.3951688188070777E-004    326.3546464056232     
   0.2333333333333333        0.1666666666666667       -3.3173281663131889E-002 
   1.8977968398384580E-002   2.6223156239287248E-005    317.5775536603403     
   0.2666666666666667        0.1666666666666667       -3.9866344199548889E-002 
   1.8586092270068445E-002   3.0485502762212733E-004    301.2685643779083     
   0.3000000000000000        0.1666666666666667       -4.6304217738366217E-002 
   1.7546795256254799E-002   6.8897987666523882E-004    287.3900477313690     
   0.3333333333333333        0.1666666666666667       -5.2242030552452676E-002 
   1.5898648608916394E-002   1.1618941265167644E-003    270.1120365146501     
   0.3666666666666666        0.1666666666666667       -5.7512272465799839E-002 
   1.3705068218735201E-002   1.7361895267956028E-003    253.8873180428124     
   0.4000000000000000        0.1666666666666667       -6.1929050630057762E-002 
   1.0998122593763301E-002   2.3993407022441958E-003    238.4233642926194     
   0.4333333333333334        0.1666666666666667       -6.5335179722323347E-002 
   7.8289097246696960E-003   3.1484924040018551E-003    224.5486986598113     
   0.4666666666666667        0.1666666666666667       -6.7582716856621705E-002 
   4.2639937126884445E-003   3.9715323040733982E-003    212.2976601887813     
   0.5000000000000000        0.1666666666666667       -6.8551847107006944E-002 
   4.0020238335023632E-004   4.8524990788790827E-003    201.7321342468028     
   0.5333333333333333        0.1666666666666667       -6.8156631167064177E-002 
  -3.6320088691487824E-003   5.7684825952818994E-003    192.8017293826058     
   0.5666666666666667        0.1666666666666667       -6.6357101170735261E-002 
  -7.6678193287476213E-003   6.6906748993586168E-003    185.4370458457271     
   0.6000000000000000        0.1666666666666667       -6.3169817875377218E-002 
  -1.1513095987198949E-002   7.5849302048513097E-003    179.5474651692996     
   0.6333333333333333        0.1666666666666667       -5.8676648456672129E-002 
  -1.4953982276448424E-002   8.4141981240476327E-003    175.0113860321764     
   0.6666666666666666        0.1666666666666667       -5.3030717791842062E-002 
  -1.7772612980658183E-002   9.1411268131734880E-003    171.6943640319231     
   0.7000000000000000        0.1666666666666667       -4.6460809350562661E-002 
  -1.9767122818635185E-002   9.7320496299707834E-003    169.5920166484675     
   0.7333333333333333        0.1666666666666667       -3.9256277257900977E-002 
  -2.0768507589954736E-002   1.0163583277384690E-002    168.1146548629485     
   0.7666666666666667        0.1666666666666667       -3.1775977919609892E-002 
  -2.0672069958625847E-002   1.0418064246293960E-002    167.9777433536328     
   0.8000000000000000        0.1666666666666667       -2.4394629315252679E-002 
  -1.9456471869291555E-002   1.0492429393650313E-002    167.1330497735031     
   0.8333333333333334        0.1666666666666667       -1.7494633657180934E-002 
  -1.7197574110776190E-002   1.0406777575993429E-002    165.4189567948088     
   0.8666666666666667        0.1666666666666667       -1.1428207788669854E-002 
  -1.4068365124248380E-002   1.0179896699986325E-002    161.5471843958752     
   0.9000000000000000        0.1666666666666667       -6.4691060693528573E-003 
  -1.0347839151700218E-002   9.8632309220103419E-003    153.9835347776048     
   0.9333333333333334        0.1666666666666667       -2.8547476652440312E-003 
  -6.4156550525598663E-003   9.4451654068987180E-003    141.1848921642369     
   0.9666666666666667        0.1666666666666667       -5.9508593075656196E-004 
  -2.7743411683824647E-003   9.0861280934224128E-003    122.6735028072478     
    1.000000000000000        0.1666666666666667         0.000000000000000      