 VARIABLES="X" "Y" "U<sub>x" "V<sub>y" "Pressure" "Temprature"
 Zone i=           61 ,j=           61 ,k=1,f=point
    0.000000000000000         0.000000000000000         0.000000000000000      
    0.000000000000000         0.000000000000000         100.0000000000000     
   5.7605523135431103E-003    0.000000000000000         0.000000000000000      
  -5.4505492387501846E-009   2.4178313887310918E-006    100.0000000000000     
   1.2023000427996755E-002    0.000000000000000        2.6115173579799376E-009 
  -9.4685278099620388E-010   1.1649725806162067E-005    100.0000000000000     
   1.8823861951481391E-002    0.000000000000000        1.2583052288228069E-008 
  -4.9516515257867079E-009   2.2260080986419543E-005    100.0000000000000     
   2.6200932792025899E-002    0.000000000000000         0.000000000000000      
  -1.0262877473848900E-008   2.9211310302600996E-005    100.0000000000000     
   3.4193050828996152E-002    0.000000000000000         0.000000000000000      
    0.000000000000000        2.8879648153970612E-005    100.0000000000000     
   4.2839794283331956E-002    0.000000000000000         0.000000000000000      
    0.000000000000000        1.8180825149154651E-005    100.0000000000000     
   5.2181107646312230E-002    0.000000000000000         0.000000000000000      
    0.000000000000000       -5.5820170315280849E-006    100.0000000000000     
   6.2256848717745894E-002    0.000000000000000         0.000000000000000      
    0.000000000000000       -4.4748572130866838E-005    100.0000000000000     
   7.3106251504744868E-002    0.000000000000000         0.000000000000000      
    0.000000000000000       -1.0127737609053370E-004    100.0000000000000     
   8.4767301539533824E-002    0.000000000000000         0.000000000000000      
    0.000000000000000       -1.7675797779620592E-004    100.0000000000000     
   9.7276022677481311E-002    0.000000000000000         0.000000000000000      
    0.000000000000000       -2.7255405140969702E-004    100.0000000000000     
   0.1106656777013390         0.000000000000000         0.000000000000000      
    0.000000000000000       -3.8992744138979449E-004    100.0000000000000     
   0.1249658891145186         0.000000000000000         0.000000000000000      
    0.000000000000000       -5.3056854198982512E-004    100.0000000000000     
   0.1402016913310242         0.000000000000000         0.000000000000000      
    0.000000000000000       -6.9663191995257155E-004    100.0000000000000     
   0.1563925309661492         0.000000000000000         0.000000000000000      
    0.000000000000000       -8.9177768497876399E-004    100.0000000000000     
   0.1735512379147404         0.000000000000000         0.000000000000000      
    0.000000000000000       -1.1201057803889118E-003    100.0000000000000     
   0.1916829960852293         0.000000000000000         0.000000000000000      
    0.000000000000000       -1.3879535870272772E-003    100.0000000000000     
   0.2107843486432788         0.000000000000000         0.000000000000000      
    0.000000000000000       -1.6996907152376454E-003    100.0000000000000     
   0.2308422779142721         0.000000000000000         0.000000000000000      
    0.000000000000000       -2.0618823630045107E-003    100.0000000000000     
   0.2518334041269664         0.000000000000000         0.000000000000000      
    0.000000000000000       -2.4731505308009149E-003    100.0000000000000     
   0.2737233493422624         0.000000000000000         0.000000000000000      
    0.000000000000000       -2.9335313263060096E-003    100.0000000000000     
   0.2964663126136101         0.000000000000000         0.000000000000000      
    0.000000000000000       -3.4236114624695648E-003    100.0000000000000     
   0.3200048991765987         0.000000000000000         0.000000000000000      
    0.000000000000000       -3.9274184549652966E-003    100.0000000000000     
   0.3442702399492024         0.000000000000000         0.000000000000000      
    0.000000000000000       -4.4058625041706158E-003    100.0000000000000     
   0.3691824277811036         0.000000000000000         0.000000000000000      
    0.000000000000000       -4.8297940407352243E-003    100.0000000000000     
   0.3946512839787446         0.000000000000000         0.000000000000000      
    0.000000000000000       -5.1376898921093907E-003    100.0000000000000     
   0.4205774532599063         0.000000000000000         0.000000000000000      
    0.000000000000000       -5.2411742546136482E-003    100.0000000000000     
   0.4468538084028640         0.000000000000000         0.000000000000000      
    0.000000000000000       -5.0960796521074122E-003    100.0000000000000     
   0.4733671286710738         0.000000000000000         0.000000000000000      
    0.000000000000000       -4.6601270681582664E-003    100.0000000000000     
   0.5000000000000000         0.000000000000000         0.000000000000000      
    0.000000000000000       -3.9227953964295669E-003    100.0000000000000     
   0.5266328713289263         0.000000000000000         0.000000000000000      
    0.000000000000000       -2.9509891680125164E-003    100.0000000000000     
   0.5531461915971361         0.000000000000000         0.000000000000000      
    0.000000000000000       -1.7893152496175461E-003    100.0000000000000     
   0.5794225467400939         0.000000000000000         0.000000000000000      
    0.000000000000000       -6.2705799168205352E-004    100.0000000000000     
   0.6053487160212554         0.000000000000000         0.000000000000000      
    0.000000000000000        4.7620068552638943E-004    100.0000000000000     
   0.6308175722188965         0.000000000000000         0.000000000000000      
    0.000000000000000        1.3074228545393062E-003    100.0000000000000     
   0.6557297600507976         0.000000000000000         0.000000000000000      
    0.000000000000000        1.8074504372056633E-003    100.0000000000000     
   0.6799951008234013         0.000000000000000         0.000000000000000      
    0.000000000000000        2.0437854933856386E-003    100.0000000000000     
   0.7035336873863899         0.000000000000000         0.000000000000000      
    0.000000000000000        1.9551341039423832E-003    100.0000000000000     
   0.7262766506577376         0.000000000000000         0.000000000000000      
    0.000000000000000        1.6837931615585971E-003    100.0000000000000     
   0.7481665958730336         0.000000000000000         0.000000000000000      
    0.000000000000000        1.2307244643875363E-003    100.0000000000000     
   0.7691577220857279         0.000000000000000         0.000000000000000      
    0.000000000000000        7.2655380919757939E-004    100.0000000000000     
   0.7892156513567211         0.000000000000000         0.000000000000000      
    0.000000000000000        1.9007957269872138E-004    100.0000000000000     
   0.8083170039147707         0.000000000000000         0.000000000000000      
    0.000000000000000       -3.0346794665505564E-004    100.0000000000000     
   0.8264487620852596         0.000000000000000         0.000000000000000      
    0.000000000000000       -7.4851559639007041E-004    100.0000000000000     
   0.8436074690338509         0.000000000000000         0.000000000000000      
    0.000000000000000       -1.1202012919511997E-003    100.0000000000000     
   0.8597983086689759         0.000000000000000         0.000000000000000      
    0.000000000000000       -1.4259269929993473E-003    100.0000000000000     
   0.8750341108854813         0.000000000000000         0.000000000000000      
    0.000000000000000       -1.6657553433679845E-003    100.0000000000000     
   0.8893343222986609         0.000000000000000         0.000000000000000      
    0.000000000000000       -1.8505439376048411E-003    100.0000000000000     
   0.9027239773225186         0.000000000000000         0.000000000000000      
    0.000000000000000       -1.9871255008080675E-003    100.0000000000000     
   0.9152326984604662         0.000000000000000         0.000000000000000      
    0.000000000000000       -2.0843510334175750E-003    100.0000000000000     
   0.9268937484952551         0.000000000000000         0.000000000000000      
    0.000000000000000       -2.1486606267890505E-003    100.0000000000000     
   0.9377431512822541         0.000000000000000         0.000000000000000      
    0.000000000000000       -2.1862242345519938E-003    100.0000000000000     
   0.9478188923536878         0.000000000000000         0.000000000000000      
    0.000000000000000       -2.2020631528771764E-003    100.0000000000000     
   0.9571602057166680         0.000000000000000         0.000000000000000      
    0.000000000000000       -2.2009001828722256E-003    100.0000000000000     
   0.9658069491710039         0.000000000000000         0.000000000000000      
    0.000000000000000       -2.1871578155559178E-003    100.0000000000000     
   0.9737990672079742         0.000000000000000         0.000000000000000      
    0.000000000000000       -2.1653767760481763E-003    100.0000000000000     
   0.9811761380485187         0.000000000000000         0.000000000000000      
    0.000000000000000       -2.1402638653007775E-003    100.0000000000000     
   0.9879769995720032         0.000000000000000         0.000000000000000      
    0.000000000000000       -2.1173724670904121E-003    100.0000000000000     
   0.9942394476864569         0.000000000000000         0.000000000000000      
    0.000000000000000       -2.1024929569735183E-003    100.0000000000000     
    1.000000000000000         0.000000000000000         0.000000000000000      
    0.000000000000000       -2.1003239803951620E-003    100.0000000000000     
    0.000000000000000        5.7605523135431103E-003  -8.7050314499419070E-010 
   8.6845892994942339E-010  -2.3645390494191031E-006    100.0000000000000     
   5.7605523135431103E-003   5.7605523135431103E-003   1.7819242770825494E-006 
  -1.7930507974139155E-006  -6.5320677692353044E-008    100.0923671514390     
   1.2023000427996755E-002   5.7605523135431103E-003   2.1738006849113942E-005 
  -1.1864239276953937E-005   4.9999661969209918E-006    100.1954720963538     
   1.8823861951481391E-002   5.7605523135431103E-003   6.9680266457774733E-005 
  -2.2451079013929577E-005   1.0849915326801690E-005    100.3100324714060     
   2.6200932792025899E-002   5.7605523135431103E-003   1.4731347844493842E-004 
  -3.0973881328570531E-005   1.4256215496583015E-005    100.4361440349094     
   3.4193050828996152E-002   5.7605523135431103E-003   2.5129171380291196E-004 
  -3.6603559780607808E-005   1.2009259209913141E-005    100.5739102621614     
   4.2839794283331956E-002   5.7605523135431103E-003   3.7496179727690995E-004 
  -3.8929188007677453E-005   9.6897368992020782E-007    100.7232728718045     
   5.2181107646312230E-002   5.7605523135431103E-003   5.0901481651855146E-004 
  -3.7925467283410520E-005  -2.1703673707020193E-005    100.8839988324386     
   6.2256848717745894E-002   5.7605523135431103E-003   6.4216767720297482E-004 
  -3.3773040043029226E-005  -5.8558059811592329E-005    101.0556607937081     
   7.3106251504744868E-002   5.7605523135431103E-003   7.6171787613138172E-004 
  -2.6847819165838666E-005  -1.1179383637913460E-004    101.2376842175005     
   8.4767301539533824E-002   5.7605523135431103E-003   8.5437726485847849E-004 
  -1.7676817603680605E-005  -1.8325440050398628E-004    101.4294467709209     
   9.7276022677481311E-002   5.7605523135431103E-003   9.0694703905581649E-004 
  -6.8611509258132560E-006  -2.7456322281770842E-004    101.6304016528068     
   0.1106656777013390        5.7605523135431103E-003   9.0724163849714517E-004 
   4.9834610718695214E-006  -3.8719532556181314E-004    101.8402697762584     
   0.1249658891145186        5.7605523135431103E-003   8.4400266067117939E-004 
   1.7413238745988840E-005  -5.2301199649083352E-004    102.0591321925276     
   0.1402016913310242        5.7605523135431103E-003   7.0731386929209663E-004 
   3.0160835878491341E-005  -6.8419743092651615E-004    102.2876037237569     
   0.1563925309661492        5.7605523135431103E-003   4.8614871079088556E-004 
   4.3435026132635715E-005  -8.7437078229228289E-004    102.5266184889890     
   0.1735512379147404        5.7605523135431103E-003   1.6857692634605293E-004 
   5.7580773857772636E-005  -1.0973929578345610E-003    102.7775887198708     
   0.1916829960852293        5.7605523135431103E-003  -2.6394972482757646E-004 
   7.3531497749839187E-005  -1.3593976021317174E-003    103.0418984426992     
   0.2107843486432788        5.7605523135431103E-003  -8.3275284099452334E-004 
   9.1682836572613247E-005  -1.6644183085381728E-003    103.3215795583015     
   0.2308422779142721        5.7605523135431103E-003  -1.5699472042051848E-003 
   1.1307381490122188E-004  -2.0189444029325397E-003    103.6182905594227     
   0.2518334041269664        5.7605523135431103E-003  -2.5056418853969279E-003 
   1.3723172969403268E-004  -2.4214213174752249E-003    103.9350619140233     
   0.2737233493422624        5.7605523135431103E-003  -3.6799143829763861E-003 
   1.6449759054775717E-004  -2.8723650474262773E-003    104.2762739754282     
   0.2964663126136101        5.7605523135431103E-003  -5.1106400000210644E-003 
   1.9019870063307211E-004  -3.3534486384217102E-003    104.6486479919002     
   0.3200048991765987        5.7605523135431103E-003  -6.7905023960291846E-003 
   2.1189590641250297E-004  -3.8502287776820128E-003    105.0496976742384     
   0.3442702399492024        5.7605523135431103E-003  -8.6676127285262236E-003 
   2.2615696099446451E-004  -4.3238008765755639E-003    105.4686903136052     
   0.3691824277811036        5.7605523135431103E-003  -1.0697431454944872E-002 
   2.3968638290037392E-004  -4.7436864793736922E-003    105.9020904675270     
   0.3946512839787446        5.7605523135431103E-003  -1.2869413107297873E-002 
   2.4288492630994304E-004  -5.0519763299943145E-003    106.3372237163310     
   0.4205774532599063        5.7605523135431103E-003  -1.4992637900552564E-002 
   2.2196412227702326E-004  -5.1636999888560135E-003    106.7575999649336     
   0.4468538084028640        5.7605523135431103E-003  -1.6860054985466368E-002 
   1.8383884635854331E-004  -5.0333135140065658E-003    107.1518337155979     
   0.4733671286710738        5.7605523135431103E-003  -1.8308615235911676E-002 
   1.2395606206474193E-004  -4.6196267415173197E-003    107.4885943612009     
   0.5000000000000000        5.7605523135431103E-003  -1.9092768512902845E-002 
   4.5377602736305483E-005  -3.9102194452923589E-003    107.7477235367401     
   0.5266328713289263        5.7605523135431103E-003  -1.9126377312710021E-002 
  -4.3696915197274298E-005  -2.9709611724956179E-003    107.9043174087379     
   0.5531461915971361        5.7605523135431103E-003  -1.8257423119724111E-002 
  -1.4380804642703687E-004  -1.8431589731403241E-003    107.9539304185965     
   0.5794225467400939        5.7605523135431103E-003  -1.6556654292105070E-002 
  -2.3132388134312280E-004  -7.1289308624264717E-004    107.8825615270184     
   0.6053487160212554        5.7605523135431103E-003  -1.4092100528615984E-002 
  -3.1727596624068637E-004   3.6272375120050221E-004    107.6764034019312     
   0.6308175722188965        5.7605523135431103E-003  -1.1055471155260128E-002 
  -3.5204571274739967E-004   1.1827002243115774E-003    107.3566673000339     
   0.6557297600507976        5.7605523135431103E-003  -8.0383030286871378E-003 
  -3.5084785881753488E-004   1.6818422785311183E-003    106.9284538649780     
   0.6799951008234013        5.7605523135431103E-003  -5.0592104774498771E-003 
  -3.4584985003189954E-004   1.9222807737173527E-003    106.4263899487356     
   0.7035336873863899        5.7605523135431103E-003  -2.3723912654728843E-003 
  -3.0247623905574182E-004   1.8470510120128984E-003    105.8929508589223     
   0.7262766506577376        5.7605523135431103E-003  -1.3524632505801460E-004 
  -2.5616820850608548E-004   1.5937297189222894E-003    105.3459660778391     
   0.7481665958730336        5.7605523135431103E-003   1.6182288086508156E-003 
  -1.9130176005977876E-004   1.1619422164941013E-003    104.8047410487822     
   0.7691577220857279        5.7605523135431103E-003   2.8248748446953673E-003 
  -1.3206817242369492E-004   6.7979863601996056E-004    104.2892901331848     
   0.7892156513567211        5.7605523135431103E-003   3.5803226602827559E-003 
  -7.2428196183185574E-005   1.6353518036076463E-004    103.8057407994970     
   0.8083170039147707        5.7605523135431103E-003   3.9214470056083261E-003 
  -2.4506522540239145E-005  -3.1215418976017695E-004    103.3638796449564     
   0.8264487620852596        5.7605523135431103E-003   3.9738088036227869E-003 
   1.5578721793671150E-005  -7.4309733608306965E-004    102.9626956534802     
   0.8436074690338509        5.7605523135431103E-003   3.8021343980065001E-003 
   4.4573208755230904E-005  -1.1036221968159959E-003    102.6035229060529     
   0.8597983086689759        5.7605523135431103E-003   3.4977803364487719E-003 
   6.5720992993770395E-005  -1.4014202822643176E-003    102.2824815310914     
   0.8750341108854813        5.7605523135431103E-003   3.1092469509026912E-003 
   7.9350923790046985E-005  -1.6355260136308731E-003    101.9968951216915     
   0.8893343222986609        5.7605523135431103E-003   2.6857792058419144E-003 
   8.7775012808916910E-005  -1.8166468443975251E-003    101.7423344118896     
   0.9027239773225186        5.7605523135431103E-003   2.2534674191634126E-003 
   9.1830456086078619E-005  -1.9509356127566187E-003    101.5150849375303     
   0.9152326984604662        5.7605523135431103E-003   1.8347424229066638E-003 
   9.2649272559607656E-005  -2.0471319771491092E-003    101.3112377801218     
   0.9268937484952551        5.7605523135431103E-003   1.4422956828180292E-003 
   9.0576546027441220E-005  -2.1114278537265022E-003    101.1274627672448     
   0.9377431512822541        5.7605523135431103E-003   1.0866300951399253E-003 
   8.5875114263298490E-005  -2.1500495016092479E-003    100.9607393411912     
   0.9478188923536878        5.7605523135431103E-003   7.7479842651316402E-004 
   7.8501218437567445E-005  -2.1680528856911196E-003    100.8085207161676     
   0.9571602057166680        5.7605523135431103E-003   5.1255749926258144E-004 
   6.8421360507246981E-005  -2.1703149304422575E-003    100.6686176552701     
   0.9658069491710039        5.7605523135431103E-003   3.0387361840721039E-004 
   5.5659227358692159E-005  -2.1613530393538999E-003    100.5392057056416     
   0.9737990672079742        5.7605523135431103E-003   1.5070750904086933E-004 
   4.0524893349289611E-005  -2.1457673753142769E-003    100.4186966772661     
   0.9811761380485187        5.7605523135431103E-003   5.2658461967647075E-005 
   2.3839878818122200E-005  -2.1279010816540522E-003    100.3057655399253     
   0.9879769995720032        5.7605523135431103E-003   3.9999467675922492E-006 
   7.5759077448611766E-006  -2.1125266572908029E-003    100.1990345903749     
   0.9942394476864569        5.7605523135431103E-003  -4.7789125296777476E-006 
  -3.9210277931570676E-006  -2.1019876838550642E-003    100.0976079814197     
    1.000000000000000        5.7605523135431103E-003  -1.5131591756688032E-006 
  -3.0255339209373418E-006  -2.1019235077371361E-003    100.0000000000000     
    0.000000000000000        1.2023000427996755E-002   1.6401225592537492E-009 
  -3.2708186022989881E-009  -1.1130150571680387E-005    100.0000000000000     
   5.7605523135431103E-003   1.2023000427996755E-002   1.1282029478652219E-005 
  -2.1230239149089913E-005  -5.0576725796809023E-006    100.1894322671350     
   1.2023000427996755E-002   1.2023000427996755E-002   6.0248797858794051E-005 
  -6.1685625005834755E-005  -7.0374046758432838E-008    100.4006759781093     
   1.8823861951481391E-002   1.2023000427996755E-002   1.5283520649297529E-004 
  -1.0377288487845222E-004   4.7631826900266130E-006    100.6354027613928     
   2.6200932792025899E-002   1.2023000427996755E-002   2.9353128342845587E-004 
  -1.3789663363384844E-004   6.5351675847121072E-006    100.8942911009842     
   3.4193050828996152E-002   1.2023000427996755E-002   4.7809988993585478E-004 
  -1.5985715167517953E-004   2.9985807479583209E-006    101.1776653838385     
   4.2839794283331956E-002   1.2023000427996755E-002   6.9652072417717445E-004 
  -1.6786608629164909E-004  -8.6201950448706290E-006    101.4854282916524     
   5.2181107646312230E-002   1.2023000427996755E-002   9.3293319092119546E-004 
  -1.6169596929282594E-004  -3.0928607061759754E-005    101.8170859438540     
   6.2256848717745894E-002   1.2023000427996755E-002   1.1669494496937677E-003 
  -1.4214002163514484E-004  -6.6431105016572466E-005    102.1717298839315     
   7.3106251504744868E-002   1.2023000427996755E-002   1.3746276862409001E-003 
  -1.1080067508714823E-004  -1.1737598428536627E-004    102.5481362963195     
   8.4767301539533824E-002   1.2023000427996755E-002   1.5299878947761076E-003 
  -6.9872854959711722E-005  -1.8572859924560008E-004    102.9449630181868     
   9.7276022677481311E-002   1.2023000427996755E-002   1.6063815788222729E-003 
  -2.1878900309976974E-005  -2.7327285654660228E-004    103.3610154302235     
   0.1106656777013390        1.2023000427996755E-002   1.5781299934546531E-003 
   3.0699743807874104E-005  -3.8164750398156095E-004    103.7956242227417     
   0.1249658891145186        1.2023000427996755E-002   1.4208127457990671E-003 
   8.5913982491050690E-005  -5.1285163304791979E-004    104.2488989515675     
   0.1402016913310242        1.2023000427996755E-002   1.1118256730652727E-003 
   1.4278901675641162E-004  -6.6912883641004296E-004    104.7220418279535     
   0.1563925309661492        1.2023000427996755E-002   6.2692488560355875E-004 
   2.0180593048718190E-004  -8.5409364898263531E-004    105.2170147133081     
   0.1735512379147404        1.2023000427996755E-002  -6.0288047005730237E-005 
   2.6470907426883817E-004  -1.0714648846509138E-003    105.7367201713290     
   0.1916829960852293        1.2023000427996755E-002  -9.8688433381491120E-004 
   3.3458520311674725E-004  -1.3272562509253169E-003    106.2840479097829     
   0.2107843486432788        1.2023000427996755E-002  -2.1961975757978491E-003 
   4.1393897450067192E-004  -1.6252673705701743E-003    106.8630898603477     
   0.2308422779142721        1.2023000427996755E-002  -3.7487687220771012E-003 
   5.0554450364232654E-004  -1.9720236646155772E-003    107.4773907378156     
   0.2518334041269664        1.2023000427996755E-002  -5.7028279008188637E-003 
   6.0892915844312301E-004  -2.3658791672683771E-003    108.1326384760402     
   0.2737233493422624        1.2023000427996755E-002  -8.1292829169528572E-003 
   7.2331337281307713E-004  -2.8080986990331371E-003    108.8369992435554     
   0.2964663126136101        1.2023000427996755E-002  -1.1062805061882239E-002 
   8.3254814141814652E-004  -3.2811582840299560E-003    109.6048323559464     
   0.3200048991765987        1.2023000427996755E-002  -1.4485846774008477E-002 
   9.2206225642092819E-004  -3.7724286147379814E-003    110.4354355454149     
   0.3442702399492024        1.2023000427996755E-002  -1.8286073925454682E-002 
   9.7817054319654026E-004  -4.2424197864801196E-003    111.3064124229152     
   0.3691824277811036        1.2023000427996755E-002  -2.2352829583422731E-002 
   1.0272393028038867E-003  -4.6611060699385774E-003    112.2079279222205     
   0.3946512839787446        1.2023000427996755E-002  -2.6643818225352629E-002 
   1.0326735450361764E-003  -4.9737509545485659E-003    113.1162343646624     
   0.4205774532599063        1.2023000427996755E-002  -3.0801039260599315E-002 
   9.3850163239770842E-004  -5.0961112180594433E-003    113.9974040116175     
   0.4468538084028640        1.2023000427996755E-002  -3.4417453085441876E-002 
   7.7049418840078015E-004  -4.9829683558258644E-003    114.8290248370618     
   0.4733671286710738        1.2023000427996755E-002  -3.7172712928220990E-002 
   5.1267270675928276E-004  -4.5924981590927663E-003    115.5486327011174     
   0.5000000000000000        1.2023000427996755E-002  -3.8622886267118448E-002 
   1.8135056818127914E-004  -3.9104673623827279E-003    116.1106212737548     
   0.5266328713289263        1.2023000427996755E-002  -3.8596996493352499E-002 
  -1.9617884950688671E-004  -3.0017049080622513E-003    116.4638023539105     
   0.5531461915971361        1.2023000427996755E-002  -3.6851633045812571E-002 
  -6.0858360837718543E-004  -1.9030104971327678E-003    116.5935020263698     
   0.5794225467400939        1.2023000427996755E-002  -3.3516025077250024E-002 
  -9.7844673503947851E-004  -8.0111299391302728E-004    116.4766656961193     
   0.6053487160212554        1.2023000427996755E-002  -2.8730153028030003E-002 
  -1.3322402312089447E-003   2.5483499667558853E-004    116.0828647301230     
   0.6308175722188965        1.2023000427996755E-002  -2.2867649631404086E-002 
  -1.4858002387307522E-003   1.0671012751441566E-003    115.4452893499603     
   0.6557297600507976        1.2023000427996755E-002  -1.6960880229250911E-002 
  -1.4917325217193732E-003   1.5644200548031843E-003    114.5767697419259     
   0.6799951008234013        1.2023000427996755E-002  -1.1135512383524452E-002 
  -1.4695748762525165E-003   1.8110351444138397E-003    113.5435039887406     
   0.7035336873863899        1.2023000427996755E-002  -5.8218516879975897E-003 
  -1.3063975756303602E-003   1.7465457598591656E-003    112.4380549980518     
   0.7262766506577376        1.2023000427996755E-002  -1.3380603955860039E-003 
  -1.1103106931285157E-003   1.5097239951885962E-003    111.2987727020754     
   0.7481665958730336        1.2023000427996755E-002   2.2283043569528110E-003 
  -8.5125525590022395E-004   1.0958308407480598E-003    110.1657900550492     
   0.7691577220857279        1.2023000427996755E-002   4.7625609857558310E-003 
  -5.9723433956827496E-004   6.3301342197309869E-004    109.0822227003098     
   0.7892156513567211        1.2023000427996755E-002   6.4055406248677465E-003 
  -3.4927773349645514E-004   1.3440652275755141E-004    108.0625201589529     
   0.8083170039147707        1.2023000427996755E-002   7.2401487693396884E-003 
  -1.3857870992043240E-004  -3.2534789387954544E-004    107.1281330444809     
   0.8264487620852596        1.2023000427996755E-002   7.4788123462548031E-003 
   3.4975485726196511E-005  -7.4331518050537566E-004    106.2784394688237     
   0.8436074690338509        1.2023000427996755E-002   7.2605357523985500E-003 
   1.6725294414237358E-004  -1.0934931809944001E-003    105.5166993700454     
   0.8597983086689759        1.2023000427996755E-002   6.7511363907296366E-003 
   2.6374965299831105E-004  -1.3836094969702341E-003    104.8355204597888     
   0.8750341108854813        1.2023000427996755E-002   6.0568318809892455E-003 
   3.2997660654195924E-004  -1.6122381331763944E-003    104.2294494065290     
   0.8893343222986609        1.2023000427996755E-002   5.2727592562658472E-003 
   3.7227899112180309E-004  -1.7897604550894091E-003    103.6893664890492     
   0.9027239773225186        1.2023000427996755E-002   4.4581430646579660E-003 
   3.9591342581893178E-004  -1.9219950133057997E-003    103.2074387002991     
   0.9152326984604662        1.2023000427996755E-002   3.6591102167046080E-003 
   4.0449170629182525E-004  -2.0174404786865267E-003    102.7753757356279     
   0.9268937484952551        1.2023000427996755E-002   2.9051098280913875E-003 
   4.0016511874727993E-004  -2.0821396754666941E-003    102.3860620061290     
   0.9377431512822541        1.2023000427996755E-002   2.2183848721645310E-003 
   3.8370491138143821E-004  -2.1222066448560650E-003    102.0330164970363     
   0.9478188923536878        1.2023000427996755E-002   1.6142632970217229E-003 
   3.5515424677700865E-004  -2.1426139640819777E-003    101.7107549039360     
   0.9571602057166680        1.2023000427996755E-002   1.1039044467656091E-003 
   3.1426939167315240E-004  -2.1480897260993089E-003    101.4145636820799     
   0.9658069491710039        1.2023000427996755E-002   6.9405690073864803E-004 
   2.6127185014741399E-004  -2.1429234317907296E-003    101.1404831607303     
   0.9737990672079742        1.2023000427996755E-002   3.8680408255610348E-004 
   1.9750590681163921E-004  -2.1312378830916001E-003    100.8851798644243     
   0.9811761380485187        1.2023000427996755E-002   1.7867124112024642E-004 
   1.2691208422148834E-004  -2.1167867921747388E-003    100.6458092804361     
   0.9879769995720032        1.2023000427996755E-002   5.8647317979282129E-005 
   5.7398956671627477E-005  -2.1031487589371414E-003    100.4198486536683     
   0.9942394476864569        1.2023000427996755E-002   8.8915115445037219E-006 
   5.4083164689953852E-006  -2.0925985647392430E-003    100.2053487353200     
    1.000000000000000        1.2023000427996755E-002  -1.6473140029089022E-006 
  -3.0287860510069283E-006  -2.0888454398375967E-003    100.0000000000000     
    0.000000000000000        1.8823861951481391E-002   4.7310559039003286E-009 
  -1.2021525112163975E-008  -2.0729962933836212E-005    100.0000000000000     
   5.7605523135431103E-003   1.8823861951481391E-002   2.0809189009108654E-005 
  -6.6468675218682034E-005  -1.0435196286745139E-005    100.2917852553625     
   1.2023000427996755E-002   1.8823861951481391E-002   9.8430755409529096E-005 