 VARIABLES="X","Y","Pressure [Pa]"
 ZONE NODES=         1679 , ELEMENTS=         3218
 , DATAPACKING=BLOCK, ZONETYPE=FETRIANGLE
 , varlocation=([         3218 ,            3 ]=CELLCENTERED)
    14.50000        14.37688        14.01056        13.41007     
    12.59017        11.57107        10.37785        9.039900     
    7.590170        6.064340        4.500000        2.935650     
    1.409830      -3.9910000E-02   -1.377850       -2.571070     
   -3.590170       -4.410070       -5.010570       -5.376880     
   -5.500000       -5.376880       -5.010560       -4.410060     
   -3.590170       -2.571070       -1.377850      -3.9900001E-02 
    1.409830        2.935660        4.500000        6.064350     
    7.590170        9.039910        10.37785        11.57107     
    12.59017        13.41007        14.01057        14.37688     
    4.999010        4.996060        4.991140        4.984290     
    4.975530        4.964890        4.952410        4.938150     
    4.922160        4.904510        4.885260        4.864480     
    4.842270        4.818710        4.793890        4.767910     
    4.740880        4.712890        4.684060        4.654510     
    4.624340        4.593690        4.562670        4.531390     
    4.500000        4.468610        4.437330        4.406310     
    4.375660        4.345490        4.315940        4.287110     
    4.259120        4.232090        4.206110        4.181290     
    4.157730        4.135520        4.114740        4.095490     
    4.077840        4.061850        4.047590        4.035110     
    4.024470        4.015710        4.008860        4.003940     
    4.000990        4.000000        4.000990        4.003940     
    4.008860        4.015710        4.024470        4.035110     
    4.047590        4.061850        4.077840        4.095490     
    4.114740        4.135520        4.157730        4.181290     
    4.206110        4.232090        4.259120        4.287110     
    4.315940        4.345490        4.375660        4.406310     
    4.437330        4.468610        4.500000        4.531390     
    4.562670        4.593690        4.624340        4.654510     
    4.684060        4.712890        4.740880        4.767910     
    4.793890        4.818710        4.842270        4.864480     
    4.885260        4.904510        4.922160        4.938150     
    4.952410        4.964890        4.975530        4.984290     
    4.991140        4.996060        4.999010        5.000000     
    7.829923        6.531454        5.182846        3.817422     
    2.468925        1.170196      -4.6863999E-02   -1.152177     
   -2.118457       -2.921844       -3.542447       -3.964919     
   -4.178823       -4.178856       -3.965018       -3.542601     
   -2.922043       -2.118701       -1.152427      -4.7093999E-02 
    1.169983        2.468727        3.817161        5.182584     
    6.531317        7.830079        9.047166        10.15250     
    11.11882        11.92224        12.54286        12.96534     
    13.17925        13.17928        12.96543        12.54300     
    11.92244        11.11908        10.15277        9.047606     
    4.994396        4.998040        5.000044        4.994428     
    4.988782        4.981236        4.971786        4.960455     
    4.947290        4.932342        4.915682        4.897374     
    4.877483        4.856089        4.833280        4.809144     
    4.783777        4.757280        4.729757        4.701312     
    4.672055        4.642105        4.611584        4.580607     
    4.549292        4.517765        4.486153        4.454570     
    4.423142        4.392004        4.361269        4.331061     
    4.301506        4.272718        4.244831        4.217928     
    4.192114        4.167523        4.144255        4.122393     
    4.102037        4.083242        4.066097        4.050697     
    4.037074        4.025290        4.015430        4.007498     
    4.001521        3.997500        3.995496        3.995516     
    3.997540        4.001571        4.007541        4.015458     
    4.025306        4.037080        4.050704        4.066093     
    4.083236        4.102034        4.122388        4.144247     
    4.167515        4.192099        4.217913        4.244823     
    4.272710        4.301495        4.331052        4.361258     
    4.391993        4.423132        4.454560        4.486144     
    4.517756        4.549283        4.580600        4.611576     
    4.642098        4.672050        4.701306        4.729752     
    4.757277        4.783774        4.809142        4.833279     
    4.856088        4.877484        4.897375        4.915682     
    4.932343        4.947293        4.960459        4.971792     
    4.981246        4.988813        4.849103        4.871280     
    4.891898        4.910933        4.928301        4.943985     
    4.957911        4.969962        4.980094        4.988242     
    4.994498        4.998652        4.999744        4.998352     
    4.994531        4.988218        4.980064        4.969946     
    4.957909        4.943984        4.928298        4.910934     
    4.891903        4.871302        4.849207        4.825711     
    4.800903        4.774884        4.747754        4.719617     
    4.690569        4.660747        4.630281        4.599263     
    4.567808        4.536052        4.504124        4.472135     
    4.440202        4.408473        4.377060        4.346079     
    4.315675        4.285969        4.257132        4.229211     
    4.202303        4.176527        4.152046        4.128988     
    4.107484        4.087480        4.069053        4.052450     
    4.037657        4.024727        4.013784        4.004923     
    3.998075        3.993212        3.990314        3.989377     
    3.990361        3.993300        3.998164        4.004995     
    4.013836        4.024765        4.037683        4.052446     
    4.069053        4.087471        4.107473        4.128983     
    4.152022        4.176463        4.202269        4.229207     
    4.257109        4.285950        4.315649        4.346051     
    4.377030        4.408447        4.440177        4.472109     
    4.504097        4.536028        4.567787        4.599239     
    4.630261        4.660731        4.690549        4.719596     
    4.747736        4.774870        4.800892        4.825786     
    11.98769        11.71019        11.25421        10.63167     
    9.858139        8.952947        7.938558        6.840536     
    5.685063        4.500262        3.315753        2.160573     
    1.062395       4.8179001E-02  -0.8569210       -1.630419     
   -2.253012       -2.709172       -2.987527       -3.081125     
   -2.987620       -2.709358       -2.253269       -1.630733     
  -0.8572810       4.7834001E-02    1.062072        2.160203     
    3.315183        4.499725        5.684605        6.840179     
    7.938282        8.952503        9.857738        10.63134     
    11.25403        11.71028        11.98866        12.08309     
    4.133342        4.111187        4.090080        4.070295     
    4.052318        4.036310        4.022242        4.010242     
    4.000540        3.993075        3.987665        3.984179     
    3.982496        3.982505        3.984208        3.987708     
    3.993106        4.000579        4.010290        4.022297     
    4.036316        4.052301        4.070341        4.090093     
    4.111286        4.133168        4.154368        4.182112     
    4.206647        4.236616        4.263355        4.295062     
    4.323695        4.356734        4.386753        4.420475     
    4.449371        4.492382        4.525913        4.561069     
    4.590857        4.624729        4.653317        4.686206     
    4.713426        4.744669        4.769870        4.798953     
    4.821860        4.848343        4.868617        4.892009     
    4.909322        4.929296        4.943511        4.959791     
    4.970550        4.981458        4.990128        4.996861     
    4.998165        5.001420        5.001135        4.996618     
    4.990090        4.981437        4.970142        4.959614     
    4.943331        4.929215        4.909156        4.891891     
    4.868447        4.848243        4.821759        4.798872     
    4.769774        4.744600        4.713362        4.686167     
    4.653291        4.624672        4.590833        4.558401     
    4.522855        4.491271        4.458823        4.429200     
    4.388161        4.356979        4.323666        4.294983     
    4.263321        4.236637        4.206507        4.181862     
    4.153755       -1.599958       -1.128478      -0.5177290     
   0.2163320        1.055105        1.977468        2.960726     
    3.982257        5.017622        6.039917        7.023685     
    7.945996        8.784897        9.519185        10.13017     
    10.60239        10.92397        11.08715        11.08745     
    10.92445        10.60267        10.13028        9.519156     
    8.784812        7.945934        7.023996        6.040287     
    5.017687        3.982536        2.961129        1.977638     
    1.055158       0.2163700      -0.5177250       -1.128600     
   -1.600817       -1.922443       -2.085332       -2.085338     
   -1.923165        4.994968        5.001858        5.006203     
    5.004823        5.001553        5.001873        4.995161     
    4.979371        4.979257        4.117742        4.091649     
    4.069479        4.047025        4.032912        4.017206     
    4.004095        3.993582        3.985665        3.980053     
    3.976416        3.974429        3.973817        3.974453     
    3.976480        3.980135        3.985733        3.993684     
    4.004216        4.017203        4.033422        4.047234     
    4.068932        4.090517        4.117661        8.566219     
    7.878595        7.109660        6.277670        5.400410     
    4.499815        3.600466        2.724837        1.892617     
    1.122975       0.4349220      -0.1539620      -0.6284320     
  -0.9766440       -1.189380       -1.260772       -1.189289     
  -0.9767380      -0.6286510      -0.1540270       0.4348750     
    1.122914        1.892467        2.724373        3.599897     
    4.499678        5.400219        6.277027        7.109216     
    7.878586        8.566798        9.156051        9.630965     
    9.979266        10.19190        10.26328        10.19158     
    9.978932        9.630817        9.156621        5.009941     
    5.005046        5.008973        5.010597        5.001526     
    4.956551        5.014448        5.010737        5.001499     
    4.956473        4.163068        4.019479        3.996251     
    3.983571        3.975098        3.969573        3.966254     
    3.964515        3.963816        3.963812        3.964539     
    3.966312        3.969637        3.975148        3.983463     
    3.994609        4.019361        4.163540        1.882696     
    2.581694        3.327519        4.104725        4.894458     
    5.673408        6.420845        7.120491        7.757592     
    8.317019        8.783630        9.144749        9.391122     
    9.516038        9.516067        9.391235        9.144870     
    8.783508        8.316795        7.757376        7.120596     
    6.421546        5.673729        4.894094        4.104793     
    3.328159        2.582102        1.882158        1.244562     
   0.6853040       0.2189820      -0.1421510      -0.3884990     
  -0.5134020      -0.5134160      -0.3884830      -0.1420710     
   0.2190930       0.6854040        1.244037        3.810483     
    3.143986        2.512075        1.927186        1.403026     
   0.9533920       0.5900490       0.3228280       0.1592470     
   0.1041890       0.1593140       0.3229250       0.5901580     
   0.9535400        1.403226        1.927163        2.511705     
    3.143292        3.810178        4.498693        5.188899     
    5.859038        6.492019        7.075953        7.599428     
    8.049254        8.412807        8.679830        8.843058     
    8.898068        8.843145        8.679753        8.412639     
    8.049161        7.599361        7.076268        6.492859     
    5.859756        5.188812        4.498629        4.226537     
    4.044812        3.969926        3.960568        3.955296     
    3.952719        3.951850        3.951724        3.952756     
    3.952901        3.952036        3.952745        3.955302     
    3.960470        3.969481        4.044738        4.228425     
    4.927389        4.984471        5.023040        5.015164     
    5.012535        5.013583        5.015035        5.026965     
    5.022971        4.984427        4.927333        3.029448     
    2.497470        2.012186        1.585335        1.228359     
   0.9509440       0.7609910       0.6644240       0.6644880     
   0.7611790       0.9511360        1.228517        1.585488     
    2.012252        2.497231        3.028866        3.597413     
    4.193793        4.802584        5.403184        5.975708     
    6.507736        6.991499        7.417610        7.774535     
    8.051782        8.241275        8.337218        8.336984     
    8.240748        8.051328        7.774134        7.417075     
    6.991175        6.508210        5.976388        5.403081     
    4.801641        4.193483        3.597847        4.078781     
    3.985851        3.940822        3.936161        3.934623     
    3.933597        3.936716        3.941645        3.934894     
    3.933204        3.934205        3.936050        3.940735     
    3.986216        4.079087        4.284517        4.287820     
    4.883449        4.969935        5.006033        5.028398     
    5.018324        5.005513        5.022458        5.026364     
    5.045605        5.008344        4.968984        4.883386     
    4.839170        4.921202        5.040947        5.045053     
    5.031586        5.026691        5.002404        5.041035     
    4.921238        4.839219        4.347823        4.103392     
    4.010839        3.953909        3.910141        3.910292     
    3.910888        3.924982        3.937743        3.909819     
    3.910529        3.909779        3.954051        4.010928     
    4.103352        4.246578        4.347590        3.962998     
    3.451437        2.969527        2.524484        2.124923     
    1.780960        1.501984        1.295966        1.169409     
    1.126772        1.169621        1.296249        1.502169     
    1.781136        2.125098        2.524446        2.969015     
    3.450590        3.962925        4.496437        5.033682     
    5.552849        6.037365        6.480780        6.878338     
    7.221594        7.500088        7.705347        7.831230     
    7.873903        7.831725        7.705947        7.500465     
    7.221640        6.878435        6.481631        6.038667     
    5.553265        5.032947        4.496344        6.057242     
    6.423509        6.747488        7.020544        7.233572     
    7.379436        7.453207        7.452663        7.378067     
    7.232100        7.019265        6.746450        6.423234     
    6.057550        5.651182        5.205639        4.733529     
    4.256350        3.794000        3.357317        2.951546     
    2.581834        2.255735        1.981981        1.768344     
    1.621557        1.546850        1.546966        1.621838     
    1.768605        1.982184        2.255925        2.581830     
    2.951000        3.356237        3.793329        4.257007     
    4.735246        5.206641        5.650589        5.041636     
    5.069640        5.072510        5.039421        5.046578     
    5.049246        5.047891        5.029488        4.950836     
    4.883269        4.785540        4.785523        4.883243     
    4.950610        4.406313        4.308861        4.189213     
    4.050096        3.963205        3.920016        3.880592     
    3.915211        3.921712        3.915539        3.880836     
    3.919900        3.964364        4.050041        4.308594     
    4.407822        4.493811        4.072742        3.674279     
    3.304317        2.965093        2.660307        2.396971     
    2.182443        2.023505        1.925777        1.892837     
    1.925929        2.023817        2.182714        2.397182     
    2.660481        2.964890        3.303636        3.673242     
    4.072138        4.494151        4.921598        5.330649     
    5.705068        6.042123        6.343145        6.604168     
    6.817354        6.975360        7.072733        7.106051     
    7.073854        6.976988        6.818789        6.604956     
    6.343917        6.043759        5.706864        5.330687     
    4.920704        4.839080        4.921177        4.955232     
    4.982798        5.064515        5.104792        5.058194     
    5.055107        5.075549        5.074631        4.983184     
    4.955826        4.921898        4.839050        4.724287     
    4.723641        4.370915        4.211048        4.081283     
    4.002925        3.885733        3.890465        3.903195     
    3.890754        3.885825        4.003145        4.080252     
    4.252940        4.365629        4.300616        3.933944     
    3.594803        3.284066        3.002043        2.752874     
    2.542779        2.378231        2.265019        2.207397     
    2.207462        2.265239        2.378545        2.543031     
    2.753060        3.001900        3.282865        3.593348     
    3.933760        4.302320        4.687054        5.064816     
    5.413778        5.726179        6.004410        6.250036     
    6.458446        6.622143        6.734429        6.791008     
    6.790195        6.732338        6.619557        6.455982     
    6.248091        6.004028        5.727686        5.414938     
    5.063389        4.685338        4.269560        4.425866     
    4.663962        4.881917        4.964132        4.999423     
    5.066379        5.106790        5.080505        5.108898     
    5.096609        5.073803        4.996533        4.963440     
    4.881823        4.667850        4.432506        4.334158     
    4.164733        4.136214        4.026019        3.875833     
    3.843571        3.847027        3.876745        3.871354     
    3.853367        3.844648        3.876131        4.025839     
    4.136388        4.462182        4.400315        4.271904     
    4.164040        4.059555        3.967283        3.917640     
    3.827199        3.797265        3.846352        3.827023     
    3.808158        3.827250        3.916952        3.967744     
    4.057180        4.118090        4.217727        4.386032     
    4.474298        4.599938        4.850809        4.913529     
    5.015574        5.069910        5.099751        5.110216     
    5.144733        5.118955        5.037626        5.013387     
    5.013250        4.912484        4.849218        4.600760     
    4.840887        5.169755        5.462646        5.720663     
    5.948969        6.147613        6.311165        6.432715     
    6.506977        6.531351        6.505386        6.430019     
    6.307813        6.144218        5.947184        5.722063     
    5.465499        5.169901        4.838359        4.489616     
    4.149121        3.834181        3.548068        3.288259     
    3.055367        2.853722        2.688809        2.566396     
    2.491169        2.465864        2.491382        2.566862     
    2.689332        2.854121        3.055416        3.286933     
    3.545351        3.832593        4.150665        4.492904     
    4.194211        4.168353        4.098141        4.000329     
    3.914262        3.867777        3.798984        3.775851     
    3.796070        3.866957        3.913537        4.000695     
    4.117457        4.292088        4.358964        4.465335     
    4.494898        4.526286        4.792250        4.864082     
    4.977266        5.075259        5.178404        5.145302     
    5.143432        5.109510        5.075990        5.047489     
    4.971990        4.863338        4.795409        4.536523     
    4.489497        4.453125        4.319958        4.260014     
    4.032043        3.765950        3.526178        3.310247     
    3.119751        2.958728        2.832233        2.745225     
    2.700993        2.701073        2.745576        2.832819     
    2.959305        3.119973        3.309340        3.523169     
    3.763018        4.033666        4.334836        4.653049     
    4.962858        5.242069        5.484628        5.696401     
    5.882414        6.041061        6.166502        6.252640     
    6.295850        6.295186        6.250610        6.163099     
    6.036639        5.878474        5.695747        5.487366     
    5.244133        4.960571        4.647692        4.332247     
    3.935495        3.871382        3.765264        3.748325     
    3.750208        3.769810        3.874215        3.937311     
    4.099202        4.222715        4.338826        4.423370     
    4.529932        4.560824        4.748655        4.799098     
    4.933905        5.042817        5.144494        5.208785     
    5.137570        5.198748        5.134683        5.144944     
    5.119108        5.089094        5.016744        4.943572     
    4.800716        4.575483        4.524631        4.511807     
    4.407455        4.337110        4.172589        4.030064     
    3.721501        3.522882        3.345114        3.191120     
    3.064800        2.970887        2.913146        2.893762     
    2.913363        2.971364        3.065458        3.191529     
    3.344648        3.520536        3.719228        3.946421     
    4.206577        4.493272        4.784581        5.053952     
    5.286966        5.485920        5.658782        5.809031     
    5.933565        6.026552        6.083239        6.102021     
    6.082307        6.024006        5.929068        5.803472     
    5.655006        5.486599        5.289778        5.053692     
    4.779415        4.486735        4.203109        3.948317     
    4.753834        4.752531        4.649859        4.548431     
    4.482918        4.377182        4.210433        4.071484     
    3.966086        3.890607        3.794106        3.691663     
    3.755394        3.703346        3.811405        3.890378     
    3.964685        4.029191        4.152949        4.238277     
    4.404297        4.497888        4.600483        4.735234     
    4.811980        4.880568        5.003595        5.240367     
    5.178883        5.174440        5.162991        5.080656     
    5.016766        4.878123        4.805561        4.898273     
    5.119907        5.308434        5.466679        5.605716     
    5.727123        5.824506        5.891687        5.925661     
    5.925953        5.892665        5.826616        5.731265     
    5.612420        5.473784        5.312676        5.119394     
    4.896422        4.622930        4.344020        4.103417     
    3.886162        3.697689        3.533073        3.388936     
    3.266521        3.169909        3.103241        3.069324     
    3.069304        3.103225        3.170048        3.266752     
    3.389140        3.533799        3.698354        3.885524     
    4.103503        4.343234        4.618892        4.620920     
    4.561175        4.494110        4.308793        4.133211     
    4.072114        3.995459        3.916359        3.804109     
    3.741358        3.695716        3.808152        3.665428     
    3.708435        3.811963        3.918195        3.996607     
    4.137959        4.290992        4.573260        4.612615     
    4.746579        4.708790        4.804758        5.089490     
    5.127495        5.177191        5.201978        5.234221     
    5.237193        5.202458        5.076899        4.948725     
    4.820013        4.737266        4.989243        5.163988     
    5.317067        5.447210        5.559371        5.653034     
    5.723501        5.766794        5.781529        5.766710     
    5.722141        5.649110        5.552470        5.439898     
    5.312936        5.160934        4.987589        4.217334     
    4.024664        3.847026        3.691870        3.556224     
    3.439389        3.343367        3.271684        3.227707     
    3.212955        3.227810        3.272008        3.343757     
    3.439392        3.555113        3.688869        3.843670     
    4.027498        4.222192        4.656960        4.685398     
    4.708631        4.735286        4.894986        5.089015     
    5.160655        5.225300        5.254568        5.263076     
    5.270388        5.187778        5.114709        5.016304     
    4.909461        4.742699        4.668373        4.655999     
    4.599872        4.491987        4.384377        4.208904     
    4.037751        3.943071        3.843544        3.693192     
    3.649936        3.627962        3.710822        3.625655     
    3.642901        3.419991        3.493457        3.585868     
    3.695531        3.822644        3.971273        4.128941     
    4.422720        4.789811        5.044509        5.181395     
    5.300327        5.405873        5.498678        5.573200     
    5.624431        5.650087        5.649942        5.624329     
    5.574153        5.502733        5.414389        5.310900     
    5.187221        5.045001        4.792087        4.427931     
    4.127235        3.967424        3.820431        3.694440     
    3.585540        3.498025        3.425663        3.370414     
    3.343951        3.343791        3.369577        3.842832     
    3.953964        4.041238        4.145100        4.265368     
    4.558591        5.372201        5.289706        5.193213     
    5.073130        4.963315        4.835267        4.760589     
    4.695188        4.595256        4.481680        4.290552     
    4.295752        4.059048        4.124746        3.925617     
    3.798666        3.842586        3.717594        3.639129     
    3.565565        3.476174        3.552607        3.454749     
    3.454971        3.466699        3.577008        3.504049     
    3.557530        3.625478        3.625638        3.718464     
    3.802761        3.844079        3.923389        4.051315     
    4.086729        4.367071        4.478102        4.637209     
    4.725358        4.811668        4.947314        4.994648     
    5.077470        5.182734        5.279887        5.369383     
    5.438350        5.492512        5.530810        5.542479     
    5.531029        5.495022        5.441170        5.239708     
    5.165080        5.131994        5.323742        5.308067     
    5.303908        5.312076        5.246436        5.167946     
    4.887770        4.295269        3.564235        3.633305     
    3.756693        4.667372        4.886832        5.178348     
    5.087601        4.912444        4.957056        4.723675     
    4.710715        4.596084        4.467603        4.299047     
    4.181681        4.011327        3.747343        3.725189     
    3.547971        4.184373        4.382773        4.467600     
    4.597502        4.731814        4.889688        4.944409     
    5.095300        5.191486        5.246047        5.323379     
    5.379860        5.427022        5.375957        5.449776     
    5.450366        5.373889        5.419626        5.355065     
    5.333058        5.253393        5.263669        5.256427     
    4.708550        4.712014        4.396393        4.514115     
    4.656840        4.808595        5.005843        4.600400     
    3.656235        4.689014        4.812720        4.606644     
    5.376995        4.438920        4.592527    
    4.000000        5.564340        7.090170        8.539910     
    9.877850        11.07107        12.09017        12.91007     
    13.51056        13.87688        14.00000        13.87688     
    13.51056        12.91006        12.09017        11.07107     
    9.877850        8.539900        7.090170        5.564340     
    4.000000        2.435650       0.9098300      -0.5399100     
   -1.877850       -3.071070       -4.090170       -4.910070     
   -5.510570       -5.876880       -6.000000       -5.876880     
   -5.510560       -4.910060       -4.090170       -3.071070     
   -1.877850      -0.5399000       0.9098300        2.435660     
    4.000140        4.000560        4.001250        4.002210     
    4.003420        4.004870        4.006560        4.008450     
    4.010530        4.012780        4.015190        4.017720     
    4.020370        4.023100        4.025890        4.028730     
    4.031580        4.034430        4.037260        4.040030     
    4.042720        4.045310        4.047770        4.050070     
    4.052190        4.054090        4.055750        4.057140     
    4.058220        4.058990        4.059410        4.059460     
    4.059140        4.058420        4.057300        4.055780     
    4.053860        4.051540        4.048850        4.045790     
    4.042390        4.038660        4.034630        4.030320     
    4.025770        4.020990        4.016000        4.010840     
    4.005500        4.000000        3.994500        3.989170     
    3.984000        3.979010        3.974230        3.969680     
    3.965370        3.961340        3.957610        3.954210     