 VARIABLES="X" "Y" "U<sub>x" "V<sub>y" "Pressure" "Temprature"
 Zone i=           40 ,j=           80 ,k=1,f=point
    0.000000000000000         0.000000000000000         0.000000000000000      
    0.000000000000000         0.000000000000000         100.0000000000000     
   2.5641025641025640E-002    0.000000000000000         0.000000000000000      
  -1.6358135339817991E-009   1.7012455221651889E-007    100.0000000000000     
   5.1282051282051280E-002    0.000000000000000        8.0755719414730352E-010 
  -2.7282699724636506E-010   9.1588295880405175E-007    100.0000000000000     
   7.6923076923076927E-002    0.000000000000000        4.3476265915051830E-009 
  -1.4677080329937457E-009   1.8467373415418500E-006    100.0000000000000     
   0.1025641025641026         0.000000000000000         0.000000000000000      
  -2.9592561721882613E-009   2.6484610889005578E-006    100.0000000000000     
   0.1282051282051282         0.000000000000000         0.000000000000000      
    0.000000000000000        3.1579578080065932E-006    100.0000000000000     
   0.1538461538461539         0.000000000000000         0.000000000000000      
    0.000000000000000        3.2823341837169163E-006    100.0000000000000     
   0.1794871794871795         0.000000000000000         0.000000000000000      
    0.000000000000000        2.9670055229791968E-006    100.0000000000000     
   0.2051282051282051         0.000000000000000         0.000000000000000      
    0.000000000000000        2.1838503459823818E-006    100.0000000000000     
   0.2307692307692308         0.000000000000000         0.000000000000000      
    0.000000000000000        9.2496346690752292E-007    100.0000000000000     
   0.2564102564102564         0.000000000000000         0.000000000000000      
    0.000000000000000       -8.0154551634376632E-007    100.0000000000000     
   0.2820512820512821         0.000000000000000         0.000000000000000      
    0.000000000000000       -2.9742219571674378E-006    100.0000000000000     
   0.3076923076923077         0.000000000000000         0.000000000000000      
    0.000000000000000       -5.5607890225986164E-006    100.0000000000000     
   0.3333333333333333         0.000000000000000         0.000000000000000      
    0.000000000000000       -8.5188164621087813E-006    100.0000000000000     
   0.3589743589743590         0.000000000000000         0.000000000000000      
    0.000000000000000       -1.1801123082329662E-005    100.0000000000000     
   0.3846153846153846         0.000000000000000         0.000000000000000      
    0.000000000000000       -1.5353216726241927E-005    100.0000000000000     
   0.4102564102564102         0.000000000000000         0.000000000000000      
    0.000000000000000       -1.9118547850844018E-005    100.0000000000000     
   0.4358974358974359         0.000000000000000         0.000000000000000      
    0.000000000000000       -2.3038775748819174E-005    100.0000000000000     
   0.4615384615384616         0.000000000000000         0.000000000000000      
    0.000000000000000       -2.7055509976911050E-005    100.0000000000000     
   0.4871794871794872         0.000000000000000         0.000000000000000      
    0.000000000000000       -3.1111543000080806E-005    100.0000000000000     
   0.5128205128205128         0.000000000000000         0.000000000000000      
    0.000000000000000       -3.5152283682290805E-005    100.0000000000000     
   0.5384615384615384         0.000000000000000         0.000000000000000      
    0.000000000000000       -3.9123927656451578E-005    100.0000000000000     
   0.5641025641025641         0.000000000000000         0.000000000000000      
    0.000000000000000       -4.2980021061652936E-005    100.0000000000000     
   0.5897435897435898         0.000000000000000         0.000000000000000      
    0.000000000000000       -4.6673626517117983E-005    100.0000000000000     
   0.6153846153846154         0.000000000000000         0.000000000000000      
    0.000000000000000       -5.0163495862434644E-005    100.0000000000000     
   0.6410256410256411         0.000000000000000         0.000000000000000      
    0.000000000000000       -5.3411455992459633E-005    100.0000000000000     
   0.6666666666666666         0.000000000000000         0.000000000000000      
    0.000000000000000       -5.6382727797868734E-005    100.0000000000000     
   0.6923076923076923         0.000000000000000         0.000000000000000      
    0.000000000000000       -5.9045776598949795E-005    100.0000000000000     
   0.7179487179487180         0.000000000000000         0.000000000000000      
    0.000000000000000       -6.1372251140855136E-005    100.0000000000000     
   0.7435897435897436         0.000000000000000         0.000000000000000      
    0.000000000000000       -6.3337055114733964E-005    100.0000000000000     
   0.7692307692307693         0.000000000000000         0.000000000000000      
    0.000000000000000       -6.4918767422516476E-005    100.0000000000000     
   0.7948717948717948         0.000000000000000         0.000000000000000      
    0.000000000000000       -6.6100437192230518E-005    100.0000000000000     
   0.8205128205128205         0.000000000000000         0.000000000000000      
    0.000000000000000       -6.6871213000735055E-005    100.0000000000000     
   0.8461538461538462         0.000000000000000         0.000000000000000      
    0.000000000000000       -6.7229033040060477E-005    100.0000000000000     
   0.8717948717948718         0.000000000000000         0.000000000000000      
    0.000000000000000       -6.7185401096422881E-005    100.0000000000000     
   0.8974358974358975         0.000000000000000         0.000000000000000      
    0.000000000000000       -6.6773603168364612E-005    100.0000000000000     
   0.9230769230769231         0.000000000000000         0.000000000000000      
    0.000000000000000       -6.6063848744857701E-005    100.0000000000000     
   0.9487179487179487         0.000000000000000         0.000000000000000      
    0.000000000000000       -6.5196566081451602E-005    100.0000000000000     
   0.9743589743589743         0.000000000000000         0.000000000000000      
    0.000000000000000       -6.4446925481039799E-005    100.0000000000000     
    1.000000000000000         0.000000000000000         0.000000000000000      
    0.000000000000000       -6.4216648351800399E-005    100.0000000000000     
    0.000000000000000        2.5316455696202531E-002  -2.6918491915480923E-010 
   2.7202761679397837E-010  -1.6571464688449982E-007    100.0000000000000     
   2.5641025641025640E-002   2.5316455696202531E-002   2.3334758131987667E-007 
  -2.4973624665377274E-007   1.6027060205534306E-009    100.0627198999392     
   5.1282051282051280E-002   2.5316455696202531E-002   5.7303144237234817E-006 
  -3.4459821516025973E-006   4.2410914299984030E-007    100.1241943573692     
   7.6923076923076927E-002   2.5316455696202531E-002   1.8844273232006080E-005 
  -6.8675997560979175E-006   9.2810906760273564E-007    100.1846535440658     
   0.1025641025641026        2.5316455696202531E-002   3.9204672227341723E-005 
  -9.7801130021315401E-006   1.3415359613443021E-006    100.2433887032381     
   0.1282051282051282        2.5316455696202531E-002   6.5631915159943522E-005 
  -1.2089480080852593E-005   1.5403887332531127E-006    100.2998864359309     
   0.1538461538461539        2.5316455696202531E-002   9.6740134467616999E-005 
  -1.3774640025765312E-005   1.4347970507684746E-006    100.3536751365799     
   0.1794871794871795        2.5316455696202531E-002   1.3113221603350327E-004 
  -1.4871802842849302E-005   9.6863280466897192E-007    100.4043467480568     
   0.2051282051282051        2.5316455696202531E-002   1.6747999852885113E-004 
  -1.5421813867854346E-005   1.0842992711371461E-007    100.4515323258406     
   0.2307692307692308        2.5316455696202531E-002   2.0454599625154316E-004 
  -1.5471918550478136E-005  -1.1597207234652402E-006    100.4949087356623     
   0.2564102564102564        2.5316455696202531E-002   2.4120022697558851E-004 
  -1.5071351480010651E-005  -2.8343984331524880E-006    100.5341985620056     
   0.2820512820512821        2.5316455696202531E-002   2.7642867104356848E-004 
  -1.4272207922067411E-005  -4.9010929282729794E-006    100.5691722377765     
   0.3076923076923077        2.5316455696202531E-002   3.0934077629832777E-004 
  -1.3128943382218383E-005  -7.3346225439177714E-006    100.5996495258627     
   0.3333333333333333        2.5316455696202531E-002   3.3917652427608403E-004 
  -1.1695337105043118E-005  -1.0100967399108111E-005    100.6254983241729     
   0.3589743589743590        2.5316455696202531E-002   3.6530817386581742E-004 
  -1.0031020560210728E-005  -1.3159174294138262E-005    100.6466343694811     
   0.3846153846153846        2.5316455696202531E-002   3.8724028255975772E-004 
  -8.1894729511292749E-006  -1.6463134783310694E-005    100.6630187750603     
   0.4102564102564102        2.5316455696202531E-002   4.0460816892681707E-004 
  -6.2241731565072178E-006  -1.9963257212408838E-005    100.6746550476979     
   0.4358974358974359        2.5316455696202531E-002   4.1716988627165329E-004 
  -4.1850964232174649E-006  -2.3607928794894130E-005    100.6815859575384     
   0.4615384615384616        2.5316455696202531E-002   4.2479784684605599E-004 
  -2.1176711983011130E-006  -2.7344942193802915E-005    100.6838898370414     
   0.4871794871794872        2.5316455696202531E-002   4.2746799753752324E-004 
  -6.2514082856076023E-008  -3.1122569834926394E-005    100.6816769772586     
   0.5128205128205128        2.5316455696202531E-002   4.2524638464819258E-004 
   1.9449174969890920E-006  -3.4890610694240775E-005    100.6750858569178     
   0.5384615384615384        2.5316455696202531E-002   4.1827988298684924E-004 
   3.8782448738490159E-006  -3.8601016368128856E-005    100.6642789709347     
   0.5641025641025641        2.5316455696202531E-002   4.0678182434099867E-004 
   5.7061962973127408E-006  -4.2208415222439195E-005    100.6494400787205     
   0.5897435897435898        2.5316455696202531E-002   3.9102207810763330E-004 
   7.4107789429793102E-006  -4.5670516413788937E-005    100.6307707361167     
   0.6153846153846154        2.5316455696202531E-002   3.7132233578557599E-004 
   8.9727773458085092E-006  -4.8948311824404778E-005    100.6084867676251     
   0.6410256410256411        2.5316455696202531E-002   3.4804827895765206E-004 
   1.0374464677486797E-005  -5.2006085376630878E-005    100.5828158288606     
   0.6666666666666666        2.5316455696202531E-002   3.2160943427626500E-004 
   1.1598264047900240E-005  -5.4811561685362400E-005    100.5539948680321     
   0.6923076923076923        2.5316455696202531E-002   2.9246070568621126E-004 
   1.2624857411799690E-005  -5.7335932983067857E-005    100.5222675573836     
   0.7179487179487180        2.5316455696202531E-002   2.6110835394724128E-004 
   1.3431590875830476E-005  -5.9554026026236002E-005    100.4878823549566     
   0.7435897435897436        2.5316455696202531E-002   2.2811964723501614E-004 
   1.3990413537424788E-005  -6.1444656982423125E-005    100.4510896726589     
   0.7692307692307693        2.5316455696202531E-002   1.9413673987459556E-004 
   1.4266383829541674E-005  -6.2991226366980940E-005    100.4121408081073     
   0.7948717948717948        2.5316455696202531E-002   1.5989437849529283E-004 
   1.4215279861706009E-005  -6.4182826645335831E-005    100.3712829952899     
   0.8205128205128205        2.5316455696202531E-002   1.2624063088622676E-004 
   1.3782698569998864E-005  -6.5015985645526758E-005    100.3287606073204     
   0.8461538461538462        2.5316455696202531E-002   9.4158918939632032E-005 
   1.2902312863647786E-005  -6.5497333420163671E-005    100.2848057332343     
   0.8717948717948718        2.5316455696202531E-002   6.4787211101258857E-005 
   1.1499907826193074E-005  -6.5647922524412171E-005    100.2396383768469     
   0.8974358974358975        2.5316455696202531E-002   3.9414532190291469E-005 
   9.4977265503075057E-006  -6.5509441196718183E-005    100.1934428595847     
   0.9230769230769231        2.5316455696202531E-002   1.9452131415416522E-005 
   6.8572047451896769E-006  -6.5152387667754562E-005    100.1463778765795     
   0.9487179487179487        2.5316455696202531E-002   6.1717679953129566E-006 
   3.6394221386582338E-006  -6.4691381719907942E-005    100.0984510940351     
   0.9743589743589743        2.5316455696202531E-002   3.3469197487629233E-007 
   4.7034173146795838E-007  -6.4269703947557490E-005    100.0497541341852     
    1.000000000000000        2.5316455696202531E-002  -2.0358160339143838E-007 
  -4.1201370493586419E-007  -6.4108180357443475E-005    100.0000000000000     
    0.000000000000000        5.0632911392405063E-002   3.4639951621194882E-010 
  -8.8695095240657406E-010  -8.9615679151859662E-007    100.0000000000000     
   2.5641025641025640E-002   5.0632911392405063E-002   3.3645921015667773E-006 
  -5.6098587299084564E-006  -4.1262580582134401E-007    100.1256530051661     
   5.1282051282051280E-002   5.0632911392405063E-002   1.8300092409383362E-005 
  -1.8299619830980496E-005   9.1887857620254185E-009    100.2486608782749     
   7.6923076923076927E-002   5.0632911392405063E-002   4.4879784427768470E-005 
  -3.1980005943236824E-005   4.8777544403953906E-007    100.3694047687662     
   0.1025641025641026        5.0632911392405063E-002   8.3103568671784623E-005 
  -4.4058174430060467E-005   8.1625098557117824E-007    100.4868345206859     
   0.1282051282051282        5.0632911392405063E-002   1.3115558772163854E-004 
  -5.3828351548188367E-005   9.3331942809476349E-007    100.5999650158152     
   0.1538461538461539        5.0632911392405063E-002   1.8702485468928440E-004 
  -6.1080962962479306E-005   7.5463721235782371E-007    100.7078164335369     
   0.1794871794871795        5.0632911392405063E-002   2.4845577121884011E-004 
  -6.5861835345753031E-005   2.3565454442366583E-007    100.8095292902318     
   0.2051282051282051        5.0632911392405063E-002   3.1324918440273325E-004 
  -6.8295391537835027E-005  -6.5566174704456036E-007    100.9043295804124     
   0.2307692307692308        5.0632911392405063E-002   3.7929188351066851E-004 
  -6.8554194190639691E-005  -1.9322556410965364E-006    100.9915451352179     
   0.2564102564102564        5.0632911392405063E-002   4.4462526130389912E-004 
  -6.6835206335892335E-005  -3.5937494425244006E-006    101.0705972094333     
   0.2820512820512821        5.0632911392405063E-002   5.0746971751228242E-004 
  -6.3355678452078012E-005  -5.6272552039478948E-006    101.1410128347945     
   0.3076923076923077        5.0632911392405063E-002   5.6624977905406692E-004 
  -5.8346564698676098E-005  -8.0096740850578249E-006    101.2024165133804     
   0.3333333333333333        5.0632911392405063E-002   6.1960948280811458E-004 
  -5.2049373320325102E-005  -1.0709274629662760E-005    101.2545347996163     
   0.3589743589743590        5.0632911392405063E-002   6.6642092028583488E-004 
  -4.4708852556420670E-005  -1.3687725707904294E-005    101.2971907284659     
   0.3846153846153846        5.0632911392405063E-002   7.0578684263689745E-004 
  -3.6568100110262588E-005  -1.6901398813762986E-005    101.3303003665619     
   0.4102564102564102        5.0632911392405063E-002   7.3703762680971802E-004 
  -2.7861228291372307E-005  -2.0303238193407925E-005    101.3538667770093     
   0.4358974358974359        5.0632911392405063E-002   7.5972103580501530E-004 
  -1.8808547173551186E-005  -2.3844115205605866E-005    101.3679731549705     
   0.4615384615384616        5.0632911392405063E-002   7.7358784687190491E-004 
  -9.6120955715638961E-006  -2.7474163325048051E-005    101.3727753671832     
   0.4871794871794872        5.0632911392405063E-002   7.7857382245949869E-004 
  -4.5263840827369858E-007  -3.1143884003346357E-005    101.3684944045083     
   0.5128205128205128        5.0632911392405063E-002   7.7477943773973678E-004 
   8.5117382880495329E-006  -3.4805113760565356E-005    101.3554082287831     
   0.5384615384615384        5.0632911392405063E-002   7.6245059803075439E-004 
   1.7143914990754234E-005  -3.8411542964428595E-005    101.3338447881535     
   0.5641025641025641        5.0632911392405063E-002   7.4195794879627853E-004 
   2.5327396810039437E-005  -4.1919750866755331E-005    101.3041742202939     
   0.5897435897435898        5.0632911392405063E-002   7.1378011691890133E-004 
   3.2960945898545901E-005  -4.5288895769762962E-005    101.2668016883004     
   0.6153846153846154        5.0632911392405063E-002   6.7849210162106057E-004 
   3.9955750880576053E-005  -4.8481453838715664E-005    101.2221616046845     
   0.6410256410256411        5.0632911392405063E-002   6.3675574737277415E-004 
   4.6228708750227024E-005  -5.1463161359266042E-005    101.1707112395838     
   0.6666666666666666        5.0632911392405063E-002   5.8931683357633263E-004 
   5.1696491200131169E-005  -5.4203164794083493E-005    101.1129251005637     
   0.6923076923076923        5.0632911392405063E-002   5.3700784098378136E-004 
   5.6269122670999951E-005  -5.6674112544956746E-005    101.0492905165614     
   0.7179487179487180        5.0632911392405063E-002   4.8075620229380431E-004 
   5.9842700703898340E-005  -5.8852396010809030E-005    100.9803015107111     
   0.7435897435897436        5.0632911392405063E-002   4.2159899505706455E-004 
   6.2293012597703921E-005  -6.0718402337662498E-005    100.9064566139951     
   0.7692307692307693        5.0632911392405063E-002   3.6070183591021345E-004 
   6.3467864985385544E-005  -6.2257280210254018E-005    100.8282482043267     
   0.7948717948717948        5.0632911392405063E-002   2.9938349863206659E-004 
   6.3182446515161941E-005  -6.3459592687285403E-005    100.7461681260876     
   0.8205128205128205        5.0632911392405063E-002   2.3913806043206727E-004 
   6.1216249779298730E-005  -6.4323313974757462E-005    100.6606803908681     
   0.8461538461538462        5.0632911392405063E-002   1.8166070600191762E-004 
   5.7314822648824902E-005  -6.4854817005876052E-005    100.5722482391035     
   0.8717948717948718        5.0632911392405063E-002   1.2883676819131461E-004 
   5.1216017316749399E-005  -6.5074629743550337E-005    100.4812853228737     
   0.8974358974358975        5.0632911392405063E-002   8.2745530137287037E-005 
   4.2686256161984349E-005  -6.5014296949278519E-005    100.3881710096885     
   0.9230769230769231        5.0632911392405063E-002   4.5436139784913465E-005 
   3.1721359912908596E-005  -6.4739821719956813E-005    100.2932154685959     
   0.9487179487179487        5.0632911392405063E-002   1.8887309358718449E-005 
   1.8783931082543289E-005  -6.4307579097503423E-005    100.1967076723946     
   0.9743589743589743        5.0632911392405063E-002   3.7098897985733438E-006 
   6.2146928016520642E-006  -6.3890743096390424E-005    100.0988109156921     
    1.000000000000000        5.0632911392405063E-002  -2.0303014641891321E-007 
  -4.1108546040902009E-007  -6.3444113175883471E-005    100.0000000000000     
    0.000000000000000        7.5949367088607597E-002   1.4180401401556770E-009 
  -4.3083333895695676E-009  -1.8250681424091001E-006    100.0000000000000     
   2.5641025641025640E-002   7.5949367088607597E-002   6.7111038732715105E-006 
  -1.8292109968375277E-005  -9.1845320389243142E-007    100.1890404243637     
   5.1282051282051280E-002   7.5949367088607597E-002   3.1871421428017524E-005 
  -4.4444740246675619E-005  -4.6246966169838404E-007    100.3745130501616     
   7.6923076923076927E-002   7.5949367088607597E-002   7.1785510993166459E-005 
  -7.1416919759966115E-005   2.7877304256113616E-008    100.5564509312485     
   0.1025641025641026        7.5949367088607597E-002   1.2637151065971158E-004 
  -9.5453896935873483E-005   2.9439979645698771E-007    100.7332688062958     
   0.1282051282051282        7.5949367088607597E-002   1.9317668288506998E-004 
  -1.1512673516661829E-004   3.4623045111528155E-007    100.9037127158952     
   0.1538461538461539        7.5949367088607597E-002   2.6983692985900920E-004 
  -1.2989127274194357E-004   1.0303433911676219E-007    101.0662874840850     
   0.1794871794871795        7.5949367088607597E-002   3.5353989920391222E-004 
  -1.3969806146957138E-004  -4.6519107496641110E-007    101.2197149290570     
   0.2051282051282051        7.5949367088607597E-002   4.4150883649512953E-004 
  -1.4471165334218873E-004  -1.3878206372992600E-006    101.3628020577944     
   0.2307692307692308        7.5949367088607597E-002   5.3101205365730514E-004 
  -1.4522617141156963E-004  -2.6754457606006707E-006    101.4944873184054     
   0.2564102564102564        7.5949367088607597E-002   6.1948573866287828E-004 
  -1.4161475737431266E-004  -4.3280486232676613E-006    101.6138974743641     
   0.2820512820512821        7.5949367088607597E-002   7.0457432904264634E-004 
  -1.3430600812227003E-004  -6.3335708383133701E-006    101.7202885305747     
   0.3076923076923077        7.5949367088607597E-002   7.8417730141790848E-004 
  -1.2377007941853180E-004  -8.6706171003553924E-006    101.8130867810762     
   0.3333333333333333        7.5949367088607597E-002   8.5647401307779316E-004 
  -1.1050272568533723E-004  -1.1309450270239269E-005    101.8918670750067     
   0.3589743589743590        7.5949367088607597E-002   9.1994207356423075E-004 
  -9.5013263659946652E-005  -1.4213821025216057E-005    101.9563576928255     
   0.3846153846153846        7.5949367088607597E-002   9.7336331929953938E-004 
  -7.7808529181285866E-005  -1.7342482992012014E-005    102.0064283377142     
   0.4102564102564102        7.5949367088607597E-002   1.0158215144786551E-003 
  -5.9380233328249792E-005  -2.0650717886462458E-005    102.0420826123140     
   0.4358974358974359        7.5949367088607597E-002   1.0466911285891638E-003 
  -4.0192672077490297E-005  -2.4091744203695993E-005    102.0634466356226     
   0.4615384615384616        7.5949367088607597E-002   1.0656194532985943E-003 
  -2.0673489153194160E-005  -2.7617987271892311E-005    102.0707576869520     
   0.4871794871794872        7.5949367088607597E-002   1.0725037920759927E-003 
  -1.2074817775090994E-006  -3.1182161604067829E-005    102.0643520396167     
   0.5128205128205128        7.5949367088607597E-002   1.0674660078139272E-003 
   1.7865877520295373E-005  -3.4738170299498724E-005    102.0446530518492     
   0.5384615384615384        7.5949367088607597E-002   1.0508261755698026E-003 
   3.6252002566391697E-005  -3.8241843133623819E-005    102.0121589418261     
   0.5641025641025641        7.5949367088607597E-002   1.0230775865955723E-003 
   5.3695681326691971E-005  -4.1651398736618550E-005    101.9674316693478     
   0.5897435897435898        7.5949367088607597E-002   9.8486495983549495E-004 
   6.9975985998240052E-005  -4.4927918142675012E-005    101.9110858795966     
   0.6153846153846154        7.5949367088607597E-002   9.3696739777395714E-004 
   8.4895605988144409E-005  -4.8035531119260717E-005    101.8437786282261     
   0.6410256410256411        7.5949367088607597E-002   8.8028705465292996E-004 
   9.8270233000567888E-005  -5.0941615695590973E-005    101.7662001282173     
   0.6666666666666666        7.5949367088607597E-002   8.1584432205731910E-004 
   1.0991619497274811E-004  -5.3616924669540375E-005    101.6790657635267     
   0.6923076923076923        7.5949367088607597E-002   7.4477955351438222E-004 
   1.1963727702214770E-004  -5.6035740120940813E-005    101.5831063360076     
   0.7179487179487180        7.5949367088607597E-002   6.6836237329908623E-004 
   1.2721245307703441E-004  -5.8176012466500054E-005    101.4790652965329     
   0.7435897435897436        7.5949367088607597E-002   5.8800589807446436E-004 
   1.3238145485522379E-004  -6.0019808399412497E-005    101.3676808780558     
   0.7692307692307693        7.5949367088607597E-002   5.0528692613978213E-004 
   1.3483686041170255E-004  -6.1553631923823732E-005    101.2497008360385     
   0.7948717948717948        7.5949367088607597E-002   4.2196870196200978E-004 
   1.3421296993192230E-004  -6.2769189555510213E-005    101.1258276419150     
   0.8205128205128205        7.5949367088607597E-002   3.4001639252166280E-004 
   1.3009136309512164E-004  -6.3665070675927236E-005    100.9968022350074     
   0.8461538461538462        7.5949367088607597E-002   2.6161992565437936E-004 
   1.2201284755933234E-004  -6.4245781310501545E-005    100.8632255053046     
   0.8717948717948718        7.5949367088607597E-002   1.8913948281655803E-004 
   1.0953490237038698E-004  -6.4530313512895285E-005    100.7258107384798     
   0.8974358974358975        7.5949367088607597E-002   1.2515530063013161E-004 
   9.2332304172430946E-005  -6.4535338464007477E-005    100.5851269950337     
   0.9230769230769231        7.5949367088607597E-002   7.2029465748895679E-005 
   7.0513012342276189E-005  -6.4326277091033963E-005    100.4416389125297     
   0.9487179487179487        7.5949367088607597E-002   3.2471181772746948E-005 
   4.5027380796696321E-005  -6.3880902724398493E-005    100.2960236571094     
   0.9743589743589743        7.5949367088607597E-002   7.0325121985117591E-006 
   1.9227957879797661E-005  -6.3447217768611552E-005    100.1483434432693     
    1.000000000000000        7.5949367088607597E-002    0.000000000000000      
    0.000000000000000       -6.2538927642402783E-005    100.0000000000000     
    0.000000000000000        0.1012658227848101         0.000000000000000      
    0.000000000000000       -2.6705016463750725E-006    100.0000000000000     
   2.5641025641025640E-002   0.1012658227848101        9.6287733631762634E-006 
  -3.8041489708559467E-005  -1.3669388443302150E-006    100.2535391742472     
   5.1282051282051280E-002   0.1012658227848101        4.4264638098490911E-005 
  -8.2126650845227680E-005  -8.0611879242366521E-007    100.5027450005127     
   7.6923076923076927E-002   0.1012658227848101        9.6761935311528305E-005 
  -1.2547374389587629E-004  -2.1850809117712232E-007    100.7473414588299     
   0.1025641025641026        0.1012658227848101        1.6652928113968356E-004 
  -1.6388668263900782E-004   6.9513943977278412E-008    100.9849549752308     
   0.1282051282051282        0.1012658227848101        2.5030491911880534E-004 
  -1.9541500169692266E-004   1.2341712057939577E-007    101.2139703463256     
   0.1538461538461539        0.1012658227848101        3.4535415983782269E-004 
  -2.1918593337941537E-004  -1.3517926520930767E-007    101.4324744077952     
   0.1794871794871795        0.1012658227848101        4.4840735763309122E-004 
  -2.3500782972402407E-004  -7.2192377907640734E-007    101.6387954692292     
   0.2051282051282051        0.1012658227848101        5.5624441028860898E-004 
  -2.4305171554336858E-004  -1.6621941122765734E-006    101.8311341852729     
   0.2307692307692308        0.1012658227848101        6.6566560319660992E-004 
  -2.4372610174792895E-004  -2.9628059711922735E-006    102.0082322233017     
   0.2564102564102564        0.1012658227848101        7.7364065387451803E-004 
  -2.3759207428023584E-004  -4.6219731406778783E-006    102.1687894951096     
   0.2820512820512821        0.1012658227848101        8.7736834819758297E-004 
  -2.2532751621141519E-004  -6.6270120368392109E-006    102.3118414331061     
   0.3076923076923077        0.1012658227848101        9.7433542573319479E-004 
  -2.0768758556780040E-004  -8.9561216274864471E-006    102.4365811381462     
   0.3333333333333333        0.1012658227848101        1.0623564518409216E-003 
  -1.8548372869093318E-004  -1.1579801304333534E-005    102.5424430815019     
   0.3589743589743590        0.1012658227848101        1.1395974146612886E-003 
  -1.5955334405366321E-004  -1.4462161289315489E-005    102.6290565201438     
   0.3846153846153846        0.1012658227848101        1.2045881346149936E-003 
  -1.3073600534740115E-004  -1.7562519983660926E-005    102.6962515995919     
   0.4102564102564102        0.1012658227848101        1.2562203041689092E-003 
  -9.9848680094806206E-005  -2.0836877443559303E-005    102.7440383867707     
   0.4358974358974359        0.1012658227848101        1.2937357221102768E-003 
  -6.7665480401385512E-005  -2.4239308490630538E-005    102.7725945497292     
   0.4615384615384616        0.1012658227848101        1.3167054918636924E-003 
  -3.4901667728860719E-005  -2.7723208307501977E-005    102.7822481179062     
   0.4871794871794872        0.1012658227848101        1.3250033125300766E-003 
  -2.2032185258696094E-006  -3.1242362659695125E-005    102.7734610097033     
   0.5128205128205128        0.1012658227848101        1.3187751529215891E-003 
   2.9857778346862212E-005  -3.4751835731136028E-005    102.7468119517869     
   0.5384615384615384        0.1012658227848101        1.2984081867030005E-003 
   6.0781663342780857E-005  -3.8208640308533067E-005    102.7029799903197     
   0.5641025641025641        0.1012658227848101        1.2645010408865640E-003 
   9.0134958992185889E-005  -4.1572302708605775E-005    102.6427283849412     
   0.5897435897435898        0.1012658227848101        1.2178378364421710E-003 
   1.1753871073369618E-004  -4.4805156379945508E-005    102.5668895527017     
   0.6153846153846154        0.1012658227848101        1.1593676798152903E-003 
   1.4265396683638793E-004  -4.7872628837570677E-005    102.4763507553102     
   0.6410256410256411        0.1012658227848101        1.0901906946809701E-003 