 VARIABLES="X" "Y" "U<sub>x" "V<sub>y" "Pressure" "Temprature"
 Zone i=           11 ,j=           11 ,k=1,f=point
    0.000000000000000         0.000000000000000         0.000000000000000      
    0.000000000000000         0.000000000000000         100.0000000000000     
   0.1000000000000000         0.000000000000000         0.000000000000000      
   4.9314351694080077E-005  -1.3143344698976697E-003    100.0000000000000     
   0.2000000000000000         0.000000000000000       -2.4513640234312435E-005 
   8.3552904083707304E-006  -2.5190852787714707E-003    100.0000000000000     
   0.3000000000000000         0.000000000000000       -4.6635972330406162E-005 
   1.6139155048389708E-005  -2.1587511902753380E-003    100.0000000000000     
   0.4000000000000000         0.000000000000000         0.000000000000000      
   1.4031348093792797E-005  -1.9878822387031465E-005    100.0000000000000     
   0.5000000000000000         0.000000000000000         0.000000000000000      
    0.000000000000000        3.2459140364303599E-003    100.0000000000000     
   0.6000000000000000         0.000000000000000         0.000000000000000      
    0.000000000000000        6.6294820416803683E-003    100.0000000000000     
   0.7000000000000000         0.000000000000000         0.000000000000000      
    0.000000000000000        8.6359134379896275E-003    100.0000000000000     
   0.8000000000000000         0.000000000000000         0.000000000000000      
    0.000000000000000        8.3814986576140806E-003    100.0000000000000     
   0.9000000000000000         0.000000000000000         0.000000000000000      
    0.000000000000000        6.7112092535144916E-003    100.0000000000000     
    1.000000000000000         0.000000000000000         0.000000000000000      
    0.000000000000000        5.6858674446495783E-003    100.0000000000000     
    0.000000000000000        0.1000000000000000        8.2340818572437255E-006 
  -8.0560051985121636E-006   1.3579131335238821E-003    100.0000000000000     
   0.1000000000000000        0.1000000000000000       -4.2833207632570168E-003 
   4.1119339005186396E-003  -1.1565056160972691E-004    106.4580076509830     
   0.2000000000000000        0.1000000000000000       -1.8859733172308917E-002 
   7.1856496155215136E-003  -3.0988668385891871E-004    118.2727033929395     
   0.3000000000000000        0.1000000000000000       -3.5586918551501902E-002 
   6.9830427440150857E-003   2.0135487879137192E-005    134.2683647253781     
   0.4000000000000000        0.1000000000000000       -4.8657945456982252E-002 
   4.1130880545034096E-003   1.2127169082375392E-003    140.5911837964377     
   0.5000000000000000        0.1000000000000000       -5.3171860199413376E-002 
  -2.4432964296102529E-004   3.0450914911017146E-003    142.2418649641246     
   0.6000000000000000        0.1000000000000000       -4.6911255741151396E-002 
  -5.0539607214022640E-003   5.0186678768451027E-003    134.7386063288128     
   0.7000000000000000        0.1000000000000000       -3.1856431383905218E-002 
  -7.8158101766835960E-003   6.3947097760125018E-003    125.0132225421370     
   0.8000000000000000        0.1000000000000000       -1.4549766262578631E-002 
  -6.6639854268139660E-003   6.5250928618336770E-003    113.2859890394046     
   0.9000000000000000        0.1000000000000000       -2.4859929852138096E-003 
  -2.6093086244590763E-003   5.7638131798407434E-003    104.6595911527630     
    1.000000000000000        0.1000000000000000        7.7488052826623515E-005 
   1.4862763691462876E-004   4.7009366955501732E-003    100.0000000000000     
    0.000000000000000        0.2000000000000000       -2.3819592902748602E-005 
   4.0554119267675704E-005   2.8806201008018239E-003    100.0000000000000     
   0.1000000000000000        0.2000000000000000       -9.4323628035610958E-003 
   2.0121492092824843E-002  -2.8731216447910337E-004    124.6341174098888     
   0.2000000000000000        0.2000000000000000       -3.6818384089866346E-002 
   2.9769507925651275E-002  -6.7241160177814352E-004    138.2452300254829     
   0.3000000000000000        0.2000000000000000       -6.4205662918103618E-002 
   2.8000129320110433E-002  -6.2296444280058141E-004    149.9512531327288     
   0.4000000000000000        0.2000000000000000       -8.7064263775138456E-002 
   1.6811042581032318E-002   5.6039856171134154E-004    186.5355021854144     
   0.5000000000000000        0.2000000000000000       -9.5821039699150332E-002 
  -1.3383074141713202E-003   2.2001891579562886E-003    179.3324930323258     
   0.6000000000000000        0.2000000000000000       -8.7760799040297918E-002 
  -2.0487924628090098E-002   4.3781317909668341E-003    171.3572509769718     
   0.7000000000000000        0.2000000000000000       -6.3196211714960260E-002 
  -3.2569383356012220E-002   6.0252751753644843E-003    149.6345088088114     
   0.8000000000000000        0.2000000000000000       -3.2664948151542993E-002 
  -3.0445642229073606E-002   5.9341860516094313E-003    134.2375779997242     
   0.9000000000000000        0.2000000000000000       -7.3410755935218149E-003 
  -1.5442546102314937E-002   4.9898084958634042E-003    114.9187741647043     
    1.000000000000000        0.2000000000000000        5.6247048939715689E-005 
   1.1431443956732404E-004   2.3969094584582085E-003    100.0000000000000     
    0.000000000000000        0.3000000000000000       -1.7181260920927988E-005 
   5.5293341123471627E-005   2.4467632868729132E-003    100.0000000000000     
   0.1000000000000000        0.3000000000000000       -1.3875367730272157E-002 
   4.5029221576144876E-002  -2.2379547904081169E-003    91.32926957131686     
   0.2000000000000000        0.3000000000000000       -5.1456137540876239E-002 
   6.2711486038897590E-002  -2.2492021488436974E-003    172.3959044614041     
   0.3000000000000000        0.3000000000000000       -8.8536834260869904E-002 
   5.7602855134155702E-002  -3.3549153998910937E-003    169.5991980381550     
   0.4000000000000000        0.3000000000000000       -0.1182133309492129      
   3.5703101427214820E-002  -2.5619004202451063E-003    175.9271925472216     
   0.5000000000000000        0.3000000000000000       -0.1369378239530250      
   1.1877275122549789E-003  -9.4859893810128094E-004    216.2956007332761     
   0.6000000000000000        0.3000000000000000       -0.1329616481506273      
  -3.9520897647970406E-002   1.5624488628532070E-003    209.9716983575462     
   0.7000000000000000        0.3000000000000000       -0.1024704065335414      
  -6.8176426831479939E-002   4.8460097872227758E-003    197.4315220829958     
   0.8000000000000000        0.3000000000000000       -5.6493060471088125E-002 
  -6.7192414869013548E-002   5.9740205835104492E-003    173.3121172756509     
   0.9000000000000000        0.3000000000000000       -1.3278608288793242E-002 
  -3.9122779019766282E-002   4.7823331246330345E-003    130.5791365618231     
    1.000000000000000        0.3000000000000000         0.000000000000000      
    0.000000000000000       -4.2237579016284304E-004    100.0000000000000     
    0.000000000000000        0.4000000000000000         0.000000000000000      
    0.000000000000000       -1.6907410815941450E-003    100.0000000000000     
   0.1000000000000000        0.4000000000000000       -1.6371094973421142E-002 
   7.7441329166861667E-002  -7.5186578580881368E-003    235.5760032852793     
   0.2000000000000000        0.4000000000000000       -5.9770402417700479E-002 
   0.1010809364145653       -7.8522923674698049E-003    182.8481843697227     
   0.3000000000000000        0.4000000000000000       -0.1025955337577846      
   9.3960749619339298E-002  -9.6660644327669059E-003    187.4572609036148     
   0.4000000000000000        0.4000000000000000       -0.1384573135374649      
   6.3872570104928139E-002  -9.8353150579660823E-003    180.2323598735459     
   0.5000000000000000        0.4000000000000000       -0.1682540928170829      
   1.3887219546542479E-002  -8.7775260160977402E-003    183.4317983007356     
   0.6000000000000000        0.4000000000000000       -0.1774340898156415      
  -5.4026606177596248E-002  -5.4867499683675545E-003    184.1190335584367     
   0.7000000000000000        0.4000000000000000       -0.1560182649553010      
  -0.1145723029443640        6.5362755770984016E-004    216.5198264700479     
   0.8000000000000000        0.4000000000000000       -9.5319218508721035E-002 
  -0.1315464231728799        3.9923256193727117E-003    199.9558945676823     
   0.9000000000000000        0.4000000000000000       -2.4344794185360150E-002 
  -8.3598014422994971E-002   4.6722543870426000E-003    164.2088617886602     
    1.000000000000000        0.4000000000000000         0.000000000000000      
    0.000000000000000       -4.1905655239922882E-003    100.0000000000000     
    0.000000000000000        0.5000000000000000         0.000000000000000      
    0.000000000000000       -1.0296509681854646E-002    100.0000000000000     
   0.1000000000000000        0.5000000000000000       -1.7516931817391317E-002 
   0.1123341719422051       -1.6714883384054278E-002   -15.20625412262762     
   0.2000000000000000        0.5000000000000000       -6.2390798376661866E-002 
   0.1453138755489769       -1.7070955375529454E-002    107.4863976679253     
   0.3000000000000000        0.5000000000000000       -0.1026746783981717      
   0.1331999724332601       -1.9910544923698838E-002    143.5362563187174     
   0.4000000000000000        0.5000000000000000       -0.1399791217289169      
   9.6671426759037601E-002  -2.3220560641347393E-002    121.6843273114065     
   0.5000000000000000        0.5000000000000000       -0.1718620846302091      
   3.8103700623584688E-002  -2.3940688716823057E-002    122.6846116605041     
   0.6000000000000000        0.5000000000000000       -0.1970345426992121      
  -4.9231912711838931E-002  -2.0200642574876505E-002    137.3126308037535     
   0.7000000000000000        0.5000000000000000       -0.2009674799572317      
  -0.1534108163236547       -1.0789620860913325E-002    175.7828884168325     
   0.8000000000000000        0.5000000000000000       -0.1457817298500218      
  -0.2103243226133293        2.3066929305372331E-003    221.2291865641035     
   0.9000000000000000        0.5000000000000000       -4.0081273638909683E-002 
  -0.1559346897565125        8.1845572101905250E-003    216.8671605090652     
    1.000000000000000        0.5000000000000000         0.000000000000000      
    0.000000000000000       -8.1641563209531552E-003    100.0000000000000     
    0.000000000000000        0.6000000000000000         0.000000000000000      
    0.000000000000000       -2.2954933160637816E-002    100.0000000000000     
   0.1000000000000000        0.6000000000000000       -1.5537107728428302E-002 
   0.1493916466682485       -2.9760193541199853E-002    374.5906846945601     
   0.2000000000000000        0.6000000000000000       -5.9878031787999400E-002 
   0.1810928997214063       -3.0813288889172376E-002    229.4105236578767     
   0.3000000000000000        0.6000000000000000       -8.8452815798856041E-002 
   0.1658914773183159       -3.2997035754626279E-002    197.6814565467253     
   0.4000000000000000        0.6000000000000000       -0.1156752398107385      
   0.1318259670142362       -3.7613030980896349E-002    141.6173024941676     
   0.5000000000000000        0.6000000000000000       -0.1396821806633938      
   6.9921894057745487E-002  -4.2679705275704756E-002    93.87664026736545     
   0.6000000000000000        0.6000000000000000       -0.1668984826921504      
  -2.2574267640314997E-002  -4.2267085498487011E-002    82.19004196637182     
   0.7000000000000000        0.6000000000000000       -0.1913912904842992      
  -0.1582672489497901       -3.1567853538024243E-002    107.4739281551638     
   0.8000000000000000        0.6000000000000000       -0.1893222166985873      
  -0.3113466837290425       -1.3651723043556154E-002    183.9209147650066     
   0.9000000000000000        0.6000000000000000       -6.4988421772668489E-002 
  -0.2837256939441080        1.1272608907920223E-002    254.2600755954087     
    1.000000000000000        0.6000000000000000         0.000000000000000      
    0.000000000000000       -1.5449721722647799E-002    100.0000000000000     
    0.000000000000000        0.7000000000000000         0.000000000000000      
    0.000000000000000       -3.9342867115186066E-002    100.0000000000000     
   0.1000000000000000        0.7000000000000000       -2.5849276715866600E-002 
   0.1829270629942774       -4.8157767114617826E-002   -156.3754872149375     
   0.2000000000000000        0.7000000000000000       -5.4524380137255142E-002 
   0.2171602614848267       -4.2200675565328763E-002    62.92240674968303     
   0.3000000000000000        0.7000000000000000       -6.3172912623596700E-002 
   0.1807335475634640       -4.8456414556410907E-002  -0.2998932551496031     
   0.4000000000000000        0.7000000000000000       -6.8755212734375848E-002 
   0.1436406194262477       -5.2730940366428475E-002    18.83746551697481     
   0.5000000000000000        0.7000000000000000       -7.4476214469164373E-002 
   9.0482113249255119E-002  -6.0462528098859422E-002    23.88426909580880     
   0.6000000000000000        0.7000000000000000       -8.3583695865470098E-002 
   8.8427752482932130E-003  -6.3303485111171898E-002    48.28659442541527     
   0.7000000000000000        0.7000000000000000       -0.1064380117725423      
  -0.1191583447743568       -5.5782771003244747E-002    37.26227085434844     
   0.8000000000000000        0.7000000000000000       -0.1424521031000175      
  -0.3144968609663279       -2.6442166246375461E-002    100.3017708375605     
   0.9000000000000000        0.7000000000000000       -9.5142755547313315E-002 
  -0.4265153385365450        2.9081037677301955E-002    252.6684641090671     
    1.000000000000000        0.7000000000000000         0.000000000000000      
    0.000000000000000       -1.7446979371769790E-002    100.0000000000000     
    0.000000000000000        0.8000000000000000         0.000000000000000      
    0.000000000000000       -4.6214526161155345E-002    100.0000000000000     
   0.1000000000000000        0.8000000000000000        7.9018211557866421E-003 
   0.2325080534470838       -8.0361582959260214E-002    539.4094005588150     
   0.2000000000000000        0.8000000000000000       -5.7890161108244624E-002 
   0.2113444368497664       -4.7828260783908186E-002    276.1475568045283     
   0.3000000000000000        0.8000000000000000       -3.9920515176278371E-002 
   0.1908761031486031       -4.9912752905813672E-002    209.2853831993205     
   0.4000000000000000        0.8000000000000000       -1.1433051392103516E-002 
   0.1424834398025156       -5.6766342070684393E-002    150.1396552356553     
   0.5000000000000000        0.8000000000000000        2.9568226021410082E-002 
   9.4609788412232956E-002  -6.6411047899104625E-002    109.6296198106640     
   0.6000000000000000        0.8000000000000000        5.1621761079794895E-002 
   2.6963544177004597E-002  -6.9461635666410337E-002    59.15117700656530     
   0.7000000000000000        0.8000000000000000        4.6585645735978967E-002 
  -5.8337329453697788E-002  -5.8956295629274132E-002    23.39962926891322     
   0.8000000000000000        0.8000000000000000        3.9534201182655770E-003 
  -0.2446878384108762       -9.4983489464718802E-003    46.43068113665650     
   0.9000000000000000        0.8000000000000000       -0.1286674777556644      
  -0.5444280921531384        5.8414299359394392E-002    284.3056232298451     
    1.000000000000000        0.8000000000000000         0.000000000000000      
    0.000000000000000        5.4481039815915032E-002    100.0000000000000     
    0.000000000000000        0.9000000000000000         0.000000000000000      
    0.000000000000000       -0.1341967949684572         100.0000000000000     
   0.1000000000000000        0.9000000000000000       -0.3559775726965880      
   0.3287070396504884       -7.8830122800926564E-002   -149.5347640762068     
   0.2000000000000000        0.9000000000000000       -0.1098429498260227      
   0.1473275371051442       -7.2457033369746612E-002   -135.4290403644855     
   0.3000000000000000        0.9000000000000000        7.7008608215020508E-002 
   8.5740595574179124E-002  -6.2356403199989516E-002   -98.52603406261541     
   0.4000000000000000        0.9000000000000000        0.2192265983727295      
   5.7287416281078404E-002  -6.1228545555014259E-002   -72.49124008047683     
   0.5000000000000000        0.9000000000000000        0.2961451434117682      
   3.2612799508343171E-002  -6.8392469831058553E-002   -58.69950568088056     
   0.6000000000000000        0.9000000000000000        0.3676736145729729      
   1.1752178425399660E-002  -6.3678661248083746E-002   -34.32681931049976     
   0.7000000000000000        0.9000000000000000        0.3448185924960830      
  -2.3795870074550585E-002  -4.1808628003565045E-002    4.576185018205300     
   0.8000000000000000        0.9000000000000000        0.3205246375145521      
  -4.3709799811012390E-002   4.2982755996916408E-002    8.443525375031317     
   0.9000000000000000        0.9000000000000000        3.9390792891643482E-002 
  -0.2919182854224066        0.2044785184858098         287.4965699587048     
    1.000000000000000        0.9000000000000000         0.000000000000000      
    0.000000000000000        0.6112478926121685         100.0000000000000     
    0.000000000000000         1.000000000000000         1.000000000000000      
    0.000000000000000        -1.553419544399867         500.0000000000000     
   0.1000000000000000         1.000000000000000         1.000000000000000      
    0.000000000000000        1.6322443289664156E-002    500.0000000000000     
   0.2000000000000000         1.000000000000000         1.000000000000000      
    0.000000000000000        3.3276671093359710E-002    500.0000000000000     
   0.3000000000000000         1.000000000000000         1.000000000000000      
    0.000000000000000       -1.4693391155361744E-003    500.0000000000000     
   0.4000000000000000         1.000000000000000         1.000000000000000      
    0.000000000000000       -2.1195708138554693E-002    500.0000000000000     
   0.5000000000000000         1.000000000000000         1.000000000000000      
    0.000000000000000       -4.2290091782490019E-002    500.0000000000000     
   0.6000000000000000         1.000000000000000         1.000000000000000      
    0.000000000000000       -5.0415223433887914E-002    500.0000000000000     
   0.7000000000000000         1.000000000000000         1.000000000000000      
    0.000000000000000       -3.7136510777366558E-002    500.0000000000000     
   0.8000000000000000         1.000000000000000         1.000000000000000      
    0.000000000000000        5.1386610265425764E-002    500.0000000000000     
   0.9000000000000000         1.000000000000000         1.000000000000000      
    0.000000000000000        0.3104968914596134         500.0000000000000     
    1.000000000000000         1.000000000000000         1.000000000000000      
    0.000000000000000         1.652671679162951         500.0000000000000     
