 VARIABLES="X" "Y" "U<sub>x" "V<sub>y" "Pressure" "Temprature"
 Zone i=           31 ,j=           31 ,k=1,f=point
    0.000000000000000         0.000000000000000         0.000000000000000      
    0.000000000000000         0.000000000000000         500.0000000000000     
   3.3333333333333333E-002    0.000000000000000         0.000000000000000      
   1.9735019025746091E-006  -1.5787887930452009E-004    500.0000000000000     
   6.6666666666666666E-002    0.000000000000000       -9.8667305451555094E-007 
   3.3142438803201935E-007  -3.3094543568174505E-004    500.0000000000000     
   0.1000000000000000         0.000000000000000       -2.0680290030922129E-006 
   6.8972088603784702E-007  -3.2461654536198009E-004    500.0000000000000     
   0.1333333333333333         0.000000000000000         0.000000000000000      
   6.7673533738617406E-007  -6.6401346337542091E-005    500.0000000000000     
   0.1666666666666667         0.000000000000000         0.000000000000000      
    0.000000000000000        4.4259988243067119E-004    500.0000000000000     
   0.2000000000000000         0.000000000000000         0.000000000000000      
    0.000000000000000        1.1891575018382209E-003    500.0000000000000     
   0.2333333333333333         0.000000000000000         0.000000000000000      
    0.000000000000000        2.1586229038302617E-003    500.0000000000000     
   0.2666666666666667         0.000000000000000         0.000000000000000      
    0.000000000000000        3.3340906210228083E-003    500.0000000000000     
   0.3000000000000000         0.000000000000000         0.000000000000000      
    0.000000000000000        4.6967497909174991E-003    500.0000000000000     
   0.3333333333333333         0.000000000000000         0.000000000000000      
    0.000000000000000        6.2265132999316962E-003    500.0000000000000     
   0.3666666666666666         0.000000000000000         0.000000000000000      
    0.000000000000000        7.9016901881636074E-003    500.0000000000000     
   0.4000000000000000         0.000000000000000         0.000000000000000      
    0.000000000000000        9.6990004421402872E-003    500.0000000000000     
   0.4333333333333334         0.000000000000000         0.000000000000000      
    0.000000000000000        1.1593509826256307E-002    500.0000000000000     
   0.4666666666666667         0.000000000000000         0.000000000000000      
    0.000000000000000        1.3558682639466354E-002    500.0000000000000     
   0.5000000000000000         0.000000000000000         0.000000000000000      
    0.000000000000000        1.5566485917609065E-002    500.0000000000000     
   0.5333333333333333         0.000000000000000         0.000000000000000      
    0.000000000000000        1.7587570870444838E-002    500.0000000000000     
   0.5666666666666667         0.000000000000000         0.000000000000000      
    0.000000000000000        1.9591529553952981E-002    500.0000000000000     
   0.6000000000000000         0.000000000000000         0.000000000000000      
    0.000000000000000        2.1547234672243093E-002    500.0000000000000     
   0.6333333333333333         0.000000000000000         0.000000000000000      
    0.000000000000000        2.3423262144297515E-002    500.0000000000000     
   0.6666666666666666         0.000000000000000         0.000000000000000      
    0.000000000000000        2.5188402986276427E-002    500.0000000000000     
   0.7000000000000000         0.000000000000000         0.000000000000000      
    0.000000000000000        2.6812230111182406E-002    500.0000000000000     
   0.7333333333333333         0.000000000000000         0.000000000000000      
    0.000000000000000        2.8265766266185377E-002    500.0000000000000     
   0.7666666666666667         0.000000000000000         0.000000000000000      
    0.000000000000000        2.9522057449073238E-002    500.0000000000000     
   0.8000000000000000         0.000000000000000         0.000000000000000      
    0.000000000000000        3.0557087708944563E-002    500.0000000000000     
   0.8333333333333334         0.000000000000000         0.000000000000000      
    0.000000000000000        3.1349893175970436E-002    500.0000000000000     
   0.8666666666666667         0.000000000000000         0.000000000000000      
    0.000000000000000        3.1885314056412692E-002    500.0000000000000     
   0.9000000000000000         0.000000000000000         0.000000000000000      
    0.000000000000000        3.2151146956454171E-002    500.0000000000000     
   0.9333333333333334         0.000000000000000         0.000000000000000      
    0.000000000000000        3.2151698817874871E-002    500.0000000000000     
   0.9666666666666667         0.000000000000000         0.000000000000000      
    0.000000000000000        3.1843799968672780E-002    500.0000000000000     
    1.000000000000000         0.000000000000000         0.000000000000000      
    0.000000000000000        3.1453467471812387E-002    500.0000000000000     
    0.000000000000000        3.3333333333333333E-002   3.2892415748497496E-007 
  -3.2152658357203606E-007   1.5796201616491423E-004    100.0000000000000     
   3.3333333333333333E-002   3.3333333333333333E-002  -1.6168578462899262E-004 
   1.6188799428792331E-004   2.0619185393358813E-006    335.4381790443158     
   6.6666666666666666E-002   3.3333333333333333E-002  -7.6723702854990077E-004 
   3.3461402673478014E-004  -1.2230152128933579E-005    397.9773681026119     
   0.1000000000000000        3.3333333333333333E-002  -1.6388384422480779E-003 
   4.3622161323446005E-004   9.7608544764023352E-005    429.5070995816546     
   0.1333333333333333        3.3333333333333333E-002  -2.6776979447125518E-003 
   4.8248640810924222E-004   4.1272476672626912E-004    446.7232879853129     
   0.1666666666666667        3.3333333333333333E-002  -3.7809945180325173E-003 
   4.9641669463532405E-004   9.3731245008956408E-004    456.5737645625167     
   0.2000000000000000        3.3333333333333333E-002  -4.8911831316227868E-003 
   4.8746011547574485E-004   1.6778517145678445E-003    461.9527460088348     
   0.2333333333333333        3.3333333333333333E-002  -5.9649455332308294E-003 
   4.6358062607637754E-004   2.6247393381864928E-003    464.4404651777182     
   0.2666666666666667        3.3333333333333333E-002  -6.9734440423711323E-003 
   4.2888628297371316E-004   3.7661235764606836E-003    465.0115091952197     
   0.3000000000000000        3.3333333333333333E-002  -7.8946541346440833E-003 
   3.8602613508495438E-004   5.0859326689592088E-003    464.3362366521601     
   0.3333333333333333        3.3333333333333333E-002  -8.7115618028039566E-003 
   3.3653328714143316E-004   6.5658886007811381E-003    462.8677126211439     
   0.3666666666666666        3.3333333333333333E-002  -9.4101616218957712E-003 
   2.8150027030141071E-004   8.1854934619806953E-003    460.9317573849809     
   0.4000000000000000        3.3333333333333333E-002  -9.9786812098841184E-003 
   2.2172081379506246E-004   9.9223536882609414E-003    458.7464716515487     
   0.4333333333333334        3.3333333333333333E-002  -1.0407121571487443E-002 
   1.5790065857734364E-004   1.1752295849848802E-002    456.4562474469199     
   0.4666666666666667        3.3333333333333333E-002  -1.0687128497758804E-002 
   9.0736831712105932E-005   1.3649528957878767E-002    454.1500817569145     
   0.5000000000000000        3.3333333333333333E-002  -1.0812050706076253E-002 
   2.0993821413056138E-005   1.5586823368946217E-002    451.8790388821412     
   0.5333333333333333        3.3333333333333333E-002  -1.0777133960193480E-002 
  -5.0450320881705775E-005   1.7535744977608833E-002    449.6677037248190     
   0.5666666666666667        3.3333333333333333E-002  -1.0579815809121281E-002 
  -1.2256563319555075E-004   1.9466950596301925E-002    447.5218912544306     
   0.6000000000000000        3.3333333333333333E-002  -1.0220096182243902E-002 
  -1.9414284073465251E-004   2.1350557752684900E-002    445.4323029950369     
   0.6333333333333333        3.3333333333333333E-002  -9.7009706994434976E-003 
  -2.6376808349180472E-004   2.3156591611884041E-002    443.3744094840388     
   0.6666666666666666        3.3333333333333333E-002  -9.0289081006228750E-003 
  -3.2980680016410168E-004   2.4855525089740916E-002    441.3044106158919     
   0.7000000000000000        3.3333333333333333E-002  -8.2144187152003827E-003 
  -3.9035899383844794E-004   2.6418873325710555E-002    439.1491214473618     
   0.7333333333333333        3.3333333333333333E-002  -7.2726328042057422E-003 
  -4.4323175282644386E-004   2.7819976899154015E-002    436.7884899992426     
   0.7666666666666667        3.3333333333333333E-002  -6.2243688425602682E-003 
  -4.8573880814986332E-004   2.9034577159647759E-002    434.0177653925859     
   0.8000000000000000        3.3333333333333333E-002  -5.0967587597568215E-003 
  -5.1463379658818367E-004   3.0042487876353240E-002    430.4852408546426     
   0.8333333333333334        3.3333333333333333E-002  -3.9270841317416748E-003 
  -5.2518739772389753E-004   3.0826727717027939E-002    425.5382874210432     
   0.8666666666666667        3.3333333333333333E-002  -2.7608486361504268E-003 
  -5.1168485144016337E-004   3.1381328943185398E-002    417.9245395191949     
   0.9000000000000000        3.3333333333333333E-002  -1.6716792610272531E-003 
  -4.6303042953746784E-004   3.1696584998468634E-002    404.9741930594473     
   0.9333333333333334        3.3333333333333333E-002  -7.2712419598499028E-004 
  -3.7392526669389889E-004   3.1813144331151684E-002    379.8670624300885     
   0.9666666666666667        3.3333333333333333E-002  -1.2313907760846677E-004 
  -1.9855480137538734E-004   3.1693378894738847E-002    325.7180930281386     
    1.000000000000000        3.3333333333333333E-002   1.3186932869228133E-004 
   2.6293004168594477E-004   3.1637338017364347E-002    100.0000000000000     
    0.000000000000000        6.6666666666666666E-002  -9.3934602270764671E-007 
   1.5984869307412464E-006   3.3943493131584395E-004    100.0000000000000     
   3.3333333333333333E-002   6.6666666666666666E-002  -3.3809465610797670E-004 
   7.7141098355797523E-004   1.5784140220079420E-005    225.0653637319263     
   6.6666666666666666E-002   6.6666666666666666E-002  -1.4061008650974698E-003 
   1.3893444790836016E-003   2.5811634430781316E-006    319.3351762834124     
   0.1000000000000000        6.6666666666666666E-002  -2.8291092360581156E-003 
   1.7782662119653501E-003   1.1262196174007585E-004    369.5671412837325     
   0.1333333333333333        6.6666666666666666E-002  -4.5031617594324235E-003 
   1.9727862378021528E-003   4.4454943309934954E-004    399.4836701162715     
   0.1666666666666667        6.6666666666666666E-002  -6.2783687149363518E-003 
   2.0342838420352597E-003   9.7926474624609474E-004    417.0454825804009     
   0.2000000000000000        6.6666666666666666E-002  -8.0692247235365361E-003 
   2.0041915347359359E-003   1.7262228329487906E-003    426.6336396521688     
   0.2333333333333333        6.6666666666666666E-002  -9.8058637373764079E-003 
   1.9102916341130040E-003   2.6747329627146692E-003    430.8460991752345     
   0.2666666666666667        6.6666666666666666E-002  -1.1440310927516200E-002 
   1.7699820993359043E-003   3.8146267286803918E-003    431.5231565842645     
   0.3000000000000000        6.6666666666666666E-002  -1.2934994022402327E-002 
   1.5940827410703491E-003   5.1303699857393314E-003    429.8130605289901     
   0.3333333333333333        6.6666666666666666E-002  -1.4260924359904408E-002 
   1.3897180212357027E-003   6.6045409930194391E-003    426.6256639662731     
   0.3666666666666666        6.6666666666666666E-002  -1.5394305501851202E-002 
   1.1616755132065647E-003   8.2170566093318666E-003    422.5627147025866     
   0.4000000000000000        6.6666666666666666E-002  -1.6315452705601211E-002 
   9.1363946804213266E-004   9.9459300277494143E-003    418.0505208608796     
   0.4333333333333334        6.6666666666666666E-002  -1.7007847341277107E-002 
   6.4876051343762853E-004   1.1767261533476573E-002    413.3613021645244     
   0.4666666666666667        6.6666666666666666E-002  -1.7457923250593151E-002 
   3.7012712533678461E-004   1.3655501662704617E-002    408.6652114744860     
   0.5000000000000000        6.6666666666666666E-002  -1.7655069651713713E-002 
   8.1052912491280245E-005   1.5583631466813026E-002    404.0584539948939     
   0.5333333333333333        6.6666666666666666E-002  -1.7591914240039506E-002 
  -2.1470346193863069E-004   1.7523424248820061E-002    399.5878620314171     
   0.5666666666666667        6.6666666666666666E-002  -1.7264768673127918E-002 
  -5.1277485266195549E-004   1.9445750447527891E-002    395.2655698156218     
   0.6000000000000000        6.6666666666666666E-002  -1.6674215754562526E-002 
  -8.0805507841776318E-004   2.1320962103183561E-002    391.0765494839050     
   0.6333333333333333        6.6666666666666666E-002  -1.5825816212924282E-002 
  -1.0945987995826644E-003   2.3119346985278157E-002    386.9790814553257     
   0.6666666666666666        6.6666666666666666E-002  -1.4730892494289620E-002 
  -1.3655040453678388E-003   2.4811695393427209E-002    382.8974457553590     
   0.7000000000000000        6.6666666666666666E-002  -1.3407482431754131E-002 
  -1.6128005141374385E-003   2.6369896869808399E-002    378.7068561151047     
   0.7333333333333333        6.6666666666666666E-002  -1.1881321992472335E-002 
  -1.8271141975087898E-003   2.7767797284068675E-002    374.1994104045535     
   0.7666666666666667        6.6666666666666666E-002  -1.0187495788274265E-002 
  -1.9973186722735421E-003   2.8981752233012387E-002    369.0356650185866     
   0.8000000000000000        6.6666666666666666E-002  -8.3716866021474566E-003 
  -2.1092065083325017E-003   2.9992424571968313E-002    362.6194474205886     
   0.8333333333333334        6.6666666666666666E-002  -6.4950923202460138E-003 
  -2.1445574015478857E-003   3.0783865815572197E-002    353.9225253118189     
   0.8666666666666667        6.6666666666666666E-002  -4.6333847192761715E-003 
  -2.0764785238882671E-003   3.1351205498192355E-002    340.9932835587900     
   0.9000000000000000        6.6666666666666666E-002  -2.9001284241906410E-003 
  -1.8708866286026916E-003   3.1685745489340153E-002    319.9440157649509     
   0.9333333333333334        6.6666666666666666E-002  -1.4095616873938178E-003 
  -1.4668031239232335E-003   3.1829323165263733E-002    283.0910319564711     
   0.9666666666666667        6.6666666666666666E-002  -4.2490973196238383E-004 
  -8.0976674212436040E-004   3.1734852058904951E-002    206.1271589547642     
    1.000000000000000        6.6666666666666666E-002   1.3164202324472004E-004 
   2.6333727563537113E-004   3.1714785782858565E-002    100.0000000000000     
    0.000000000000000        0.1000000000000000       -7.0676067693013739E-007 
   2.1220827600110043E-006   3.4888061441383928E-004    100.0000000000000     
   3.3333333333333333E-002   0.1000000000000000       -4.5586461580720032E-004 
   1.6706602210735074E-003  -9.5072241221700696E-005    190.9181234596075     
   6.6666666666666666E-002   0.1000000000000000       -1.8629076710457715E-003 
   2.8346665020284913E-003  -1.1177344154936188E-004    267.8436149658387     
   0.1000000000000000        0.1000000000000000       -3.6769180018757942E-003 
   3.5566889480255306E-003  -3.0665651573133447E-006    324.1050475148782     
   0.1333333333333333        0.1000000000000000       -5.7811290648084306E-003 
   3.9299826211768142E-003   3.4322269882691069E-004    360.3600143598877     
   0.1666666666666667        0.1000000000000000       -7.9998153480969770E-003 
   4.0528227385783966E-003   8.8974654448895356E-004    382.5452465553316     
   0.2000000000000000        0.1000000000000000       -1.0235573742019081E-002 
   3.9975621602012052E-003   1.6481445216292722E-003    394.3689850803673     
   0.2333333333333333        0.1000000000000000       -1.2404567922286263E-002 
   3.8148905087526004E-003   2.6059880875864052E-003    399.5788178889431     
   0.2666666666666667        0.1000000000000000       -1.4446830056666738E-002 
   3.5374277303150689E-003   3.7536383943401913E-003    399.6876082481380     
   0.3000000000000000        0.1000000000000000       -1.6315349430155505E-002 
   3.1871959939785452E-003   5.0762959817343325E-003    396.6420002355266     
   0.3333333333333333        0.1000000000000000       -1.7972913968635425E-002 
   2.7784001492375892E-003   6.5567605266926192E-003    391.5224480903169     
   0.3666666666666666        0.1000000000000000       -1.9389361266584606E-002 
   2.3213461895949289E-003   8.1754362736616414E-003    385.2477395844561     
   0.4000000000000000        0.1000000000000000       -2.0539631909747884E-002 
   1.8237511345523066E-003   9.9105410125670118E-003    378.3912124418173     
   0.4333333333333334        0.1000000000000000       -2.1402961812225080E-002 
   1.2923094829833703E-003   1.1738367144680649E-002    371.3464589120962     
   0.4666666666666667        0.1000000000000000       -2.1962393783619819E-002 
   7.3347160127217070E-004   1.3633475095080554E-002    364.3487641045408     
   0.5000000000000000        0.1000000000000000       -2.2204810778930266E-002 
   1.5408082604334911E-004   1.5568918305426413E-002    357.5327075089636     
   0.5333333333333333        0.1000000000000000       -2.2121222824955541E-002 
  -4.3817865436971185E-004   1.7516505500830826E-002    350.9628387600861     
   0.5666666666666667        0.1000000000000000       -2.1707306330092897E-002 
  -1.0344298604930411E-003   1.9447118779869901E-002    344.6568463928101     
   0.6000000000000000        0.1000000000000000       -2.0964142008565844E-002 
  -1.6243276227312041E-003   2.1331096819101513E-002    338.5973611351692     
   0.6333333333333333        0.1000000000000000       -1.9899090933719187E-002 
  -2.1958211206329400E-003   2.3138719997438249E-002    332.7337072498679     
   0.6666666666666666        0.1000000000000000       -1.8526851637372239E-002 
  -2.7349496865791108E-003   2.4840742429433613E-002    326.9754196846524     
   0.7000000000000000        0.1000000000000000       -1.6870550885658850E-002 
  -3.2255043008536997E-003   2.6409138757342753E-002    321.1705907859912     
   0.7333333333333333        0.1000000000000000       -1.4963262670554135E-002 
  -3.6486206792805493E-003   2.7817681696832391E-002    315.0844839991971     
   0.7666666666666667        0.1000000000000000       -1.2849279537475680E-002 
  -3.9817188281946582E-003   2.9043266828092273E-002    308.3075623410689     
   0.8000000000000000        0.1000000000000000       -1.0587121479615739E-002 
  -4.1969239233377387E-003   3.0065913622714189E-002    300.2301490105724     
   0.8333333333333334        0.1000000000000000       -8.2504475493773641E-003 
  -4.2583106091072616E-003   3.0872281051673403E-002    289.6706729667264     
   0.8666666666666667        0.1000000000000000       -5.9379397889578658E-003 
  -4.1157428135366490E-003   3.1451056826824419E-002    274.8793672281033     
   0.9000000000000000        0.1000000000000000       -3.7655042726281473E-003 
  -3.7041058575134856E-003   3.1809974836551132E-002    252.4501995029997     
   0.9333333333333334        0.1000000000000000       -1.9135351037897850E-003 
  -2.9203144292372970E-003   3.1935120726292995E-002    216.4295551123045     
   0.9666666666666667        0.1000000000000000       -5.2454673397175423E-004 
  -1.6805039084682592E-003   3.1909704144118492E-002    164.5997422588866     
    1.000000000000000        0.1000000000000000         0.000000000000000      
    0.000000000000000        3.1584720569529677E-002    100.0000000000000     
    0.000000000000000        0.1333333333333333         0.000000000000000      
    0.000000000000000        1.1076278627068290E-004    100.0000000000000     
   3.3333333333333333E-002   0.1333333333333333       -5.3296457220487585E-004 
   2.7908904392180784E-003  -4.1968100975731625E-004    172.9045993010366     
   6.6666666666666666E-002   0.1333333333333333       -2.1837564408126522E-003 
   4.6109419472691923E-003  -4.5647154338892794E-004    238.7065992957290     
   0.1000000000000000        0.1333333333333333       -4.2945038036019036E-003 
   5.7124191942224184E-003  -3.6041294574873205E-004    291.3696578079654     
   0.1333333333333333        0.1333333333333333       -6.7229292003803745E-003 
   6.2824686687766055E-003  -7.3756745008390418E-006    329.0413258332462     
   0.1666666666666667        0.1333333333333333       -9.2694729657283991E-003 
   6.4698539342112138E-003   5.5234843308806002E-004    352.8846932720263     
   0.2000000000000000        0.1333333333333333       -1.1829190130952691E-002 
   6.3815292368411929E-003   1.3294790261521297E-003    365.8320003355543     
   0.2333333333333333        0.1333333333333333       -1.4308334623653997E-002 
   6.0916648199670024E-003   2.3093890081372472E-003    370.2002639943207     
   0.2666666666666667        0.1333333333333333       -1.6642688422394341E-002 
   5.6507085590333439E-003   3.4823516333876252E-003    369.6323781410956     
   0.3000000000000000        0.1333333333333333       -1.8777331896067961E-002 
   5.0917593374565761E-003   4.8322784006657243E-003    364.8599366570732     
   0.3333333333333333        0.1333333333333333       -2.0671205275709592E-002 
   4.4385733281400754E-003   6.3427134386398127E-003    357.8098546245049     
   0.3666666666666666        0.1333333333333333       -2.2289454385539639E-002 
   3.7073804695303705E-003   7.9935281780618810E-003    349.3663171952965     
   0.4000000000000000        0.1333333333333333       -2.3603836021767469E-002 
   2.9110455992019399E-003   9.7630206054939456E-003    340.3255705643728     
   0.4333333333333334        0.1333333333333333       -2.4590588649569700E-002 
   2.0605124733772740E-003   1.1627289150680170E-002    331.1483181923911     
   0.4666666666666667        0.1333333333333333       -2.5230426831347134E-002 
   1.1663130203518411E-003   1.3560704041085109E-002    322.1328149949153     
   0.5000000000000000        0.1333333333333333       -2.5508342572434343E-002 
   2.3952665715328822E-004   1.5536035241350781E-002    313.4412617905682     
   0.5333333333333333        0.1333333333333333       -2.5413965199427808E-002 
  -7.0747825558983683E-004   1.7524735772218837E-002    305.1497235228579     
   0.5666666666666667        0.1333333333333333       -2.4942166849262828E-002 
  -1.6604411758995208E-003   1.9497241031452700E-002    297.2784123776540     
   0.6000000000000000        0.1333333333333333       -2.4093921037404580E-002 
  -2.6027274786415357E-003   2.1423360892330892E-002    289.8080527449078     
   0.6333333333333333        0.1333333333333333       -2.2877389745320699E-002 
  -3.5149544925689559E-003   2.3272741713290294E-002    282.6859179234540     
   0.6666666666666666        0.1333333333333333       -2.1309117775100705E-002 
  -4.3745700502701010E-003   2.5015469109061536E-002    275.8175082386177     
   0.7000000000000000        0.1333333333333333       -1.9415484997749879E-002 
  -5.1555370139430663E-003   2.6622700144569252E-002    269.0596993418241     
   0.7333333333333333        0.1333333333333333       -1.7234136155748425E-002 
  -5.8272978139773998E-003   2.8067535924855769E-002    262.1568859438139     
   0.7666666666666667        0.1333333333333333       -1.4815963830597077E-002 
  -6.3541693315114032E-003   2.9325876996320180E-002    254.8119794318647     
   0.8000000000000000        0.1333333333333333       -1.2227157219648614E-002 
  -6.6919874278391434E-003   3.0376980845055072E-002    246.2879850425562     
   0.8333333333333334        0.1333333333333333       -9.5509920189712806E-003 
  -6.7856766298625892E-003   3.1206886842782670E-002    236.0609517066131     
   0.8666666666666667        0.1333333333333333       -6.8973862967784093E-003 
  -6.5611659601051637E-003   3.1799933382043212E-002    222.2337781244156     
   0.9000000000000000        0.1333333333333333       -4.3883126820324948E-003 
  -5.9193719698149372E-003   3.2168183592561073E-002    202.9016965887659     
   0.9333333333333334        0.1333333333333333       -2.2303880062232275E-003 
  -4.7228269107893097E-003   3.2268125063361089E-002    176.1020518347247     
   0.9666666666666667        0.1333333333333333       -5.5170166987882519E-004 
  -2.8200239678016457E-003   3.2227479243426553E-002    141.0587946562413     
    1.000000000000000        0.1333333333333333         0.000000000000000      
    0.000000000000000        3.1680465214841157E-002    100.0000000000000     
    0.000000000000000        0.1666666666666667         0.000000000000000      
    0.000000000000000       -3.8341789074630489E-004    100.0000000000000     
   3.3333333333333333E-002   0.1666666666666667       -5.9202789126538958E-004 
   4.0616053219220344E-003  -9.7581897873616160E-004    162.0157591565809     
   6.6666666666666666E-002   0.1666666666666667       -2.4327670813719874E-003 
   6.6243718396330788E-003  -1.0280095156243742E-003    219.6208716687591     
   0.1000000000000000        0.1666666666666667       -4.7855398782350950E-003 
   8.1431248726772307E-003  -9.4061562510344048E-004    267.8180565965558     
   0.1333333333333333        0.1666666666666667       -7.4833066654492238E-003 
   8.9211520123533405E-003  -5.7839150066765874E-004    304.0765332169772     
   0.1666666666666667        0.1666666666666667       -1.0302491513180981E-002 
   9.1713989931075709E-003  -3.9029690515215712E-007    327.6469582789432     
   0.2000000000000000        0.1666666666666667       -1.3128520455187451E-002 
   9.0402522949174849E-003   8.0414349795897462E-004    340.0219222162711     
   0.2333333333333333        0.1666666666666667       -1.5861964644364072E-002 
   8.6285234823510436E-003   1.8175350641173775E-003    343.7678452283689     
   0.2666666666666667        0.1666666666666667       -1.8431401467023954E-002 
   8.0035711764696559E-003   3.0302950788958418E-003    340.8117599777059     
   0.3000000000000000        0.1666666666666667       -2.0782151377354268E-002 
   7.2125134562485678E-003   4.4258531794702152E-003    334.7874528972353     
   0.3333333333333333        0.1666666666666667       -2.2866559919641229E-002 
   6.2870677796891278E-003   5.9857661461592184E-003    325.7415773355953     
   0.3666666666666666        0.1666666666666667       -2.4649106546853105E-002 
   5.2513753819858318E-003   7.6906683166198210E-003    315.4256827861756     
   0.4000000000000000        0.1666666666666667       -2.6098504189000209E-002 
   4.1233280567576358E-003   9.5181449824285405E-003    304.5073382767999     
   0.4333333333333334        0.1666666666666667       -2.7189190887401578E-002 
   2.9185568410804484E-003   1.1443945364231429E-002    293.5893967956309     
   0.4666666666666667        0.1666666666666667       -2.7899983739055199E-002 
   1.6520008186588124E-003   1.3441948365833119E-002    283.0095384654512     
   0.5000000000000000        0.1666666666666667       -2.8214146139298624E-002 
   3.3924138054081685E-004   1.5484359465572360E-002    272.9460242946151     
   0.5333333333333333        0.1666666666666667       -2.8119726028279037E-002 
  -1.0023220191198636E-003   1.7541955164546083E-002    263.4783834416270     
   0.5666666666666667        0.1666666666666667       -2.7610232853034000E-002 
  -2.3526020586745176E-003   1.9584369249327188E-002    254.6221806298797     
   0.6000000000000000        0.1666666666666667       -2.6685683659827139E-002 
  -3.6880841905458030E-003   2.1580443366215445E-002    246.3518981430909     
   0.6333333333333333        0.1666666666666667       -2.5353820281944352E-002 
  -4.9811877266218120E-003   2.3498760649643392E-002    238.6098948711108     
   0.6666666666666666        0.1666666666666667       -2.3631791105903487E-002 
  -6.1998423992678155E-003   2.5308067429065637E-002    231.3133469416961     
   0.7000000000000000        0.1666666666666667       -2.1547361436353638E-002 
  -7.3066338029591426E-003   2.6978402690756204E-002    224.3121299667102     
   0.7333333333333333        0.1666666666666667       -1.9141631667112899E-002 
  -8.2584642693719033E-003   2.8480926526774249E-002    217.4607854769233     
   0.7666666666666667        0.1666666666666667       -1.6469019945449748E-002 
  -9.0038255406924665E-003   2.9790871373618764E-002    210.2440695443684     
   0.8000000000000000        0.1666666666666667       -1.3604276029460087E-002 
  -9.4823849391517251E-003   3.0884979866855500E-002    202.8681947518952     
   0.8333333333333334        0.1666666666666667       -1.0635941114604400E-002 
  -9.6175399330233769E-003   3.1748228632925875E-002    193.8797473333797     
   0.8666666666666667        0.1666666666666667       -7.6857772047604581E-003 
  -9.3102353979220825E-003   3.2362387450657268E-002    182.6902087416607     
   0.9000000000000000        0.1666666666666667       -4.8860846847913891E-003 
  -8.4269953719552006E-003   3.2739659785597876E-002    168.2562722497918     
   0.9333333333333334        0.1666666666666667       -2.4685892097628731E-003 
  -6.7811925017977337E-003   3.2826618730228657E-002    149.5768042139606     
   0.9666666666666667        0.1666666666666667       -5.9643388653137798E-004 
  -4.1129145722967426E-003   3.2766776845240271E-002    126.4853176880052     
    1.000000000000000        0.1666666666666667         0.000000000000000      