 VARIABLES="X" "Y" "U<sub>x" "V<sub>y" "Pressure" "Temprature"
 Zone i=           31 ,j=           31 ,k=1,f=point
    0.000000000000000         0.000000000000000         0.000000000000000      
    0.000000000000000         0.000000000000000         100.0000000000000     
   3.3333333333333333E-002    0.000000000000000         0.000000000000000      
   1.7248046749222327E-005  -1.3799290399226889E-003    100.0000000000000     
   6.6666666666666666E-002    0.000000000000000       -8.1009579629956201E-006 
  -5.6300589006537910E-008  -2.6772613634496469E-003    100.0000000000000     
   0.1000000000000000         0.000000000000000       -1.5707984275947060E-005 
  -1.2850327358323648E-007  -3.3933169369357403E-003    100.0000000000000     
   0.1333333333333333         0.000000000000000         0.000000000000000      
  -1.4842141068462773E-007  -3.3757890759435519E-003    100.0000000000000     
   0.1666666666666667         0.000000000000000         0.000000000000000      
    0.000000000000000       -2.8250655889160751E-003    100.0000000000000     
   0.2000000000000000         0.000000000000000         0.000000000000000      
    0.000000000000000       -1.8335261187655228E-003    100.0000000000000     
   0.2333333333333333         0.000000000000000         0.000000000000000      
    0.000000000000000       -4.5836565176792611E-004    100.0000000000000     
   0.2666666666666667         0.000000000000000         0.000000000000000      
    0.000000000000000        1.2579394758392151E-003    100.0000000000000     
   0.3000000000000000         0.000000000000000         0.000000000000000      
    0.000000000000000        3.2747641699654865E-003    100.0000000000000     
   0.3333333333333333         0.000000000000000         0.000000000000000      
    0.000000000000000        5.5403580884800735E-003    100.0000000000000     
   0.3666666666666666         0.000000000000000         0.000000000000000      
    0.000000000000000        7.9820445920010877E-003    100.0000000000000     
   0.4000000000000000         0.000000000000000         0.000000000000000      
    0.000000000000000        1.0506255514571346E-002    100.0000000000000     
   0.4333333333333334         0.000000000000000         0.000000000000000      
    0.000000000000000        1.3000785476927077E-002    100.0000000000000     
   0.4666666666666667         0.000000000000000         0.000000000000000      
    0.000000000000000        1.5341829515850286E-002    100.0000000000000     
   0.5000000000000000         0.000000000000000         0.000000000000000      
    0.000000000000000        1.7421024553025209E-002    100.0000000000000     
   0.5333333333333333         0.000000000000000         0.000000000000000      
    0.000000000000000        1.9132278784627487E-002    100.0000000000000     
   0.5666666666666667         0.000000000000000         0.000000000000000      
    0.000000000000000        2.0414131947048601E-002    100.0000000000000     
   0.6000000000000000         0.000000000000000         0.000000000000000      
    0.000000000000000        2.1233777429118483E-002    100.0000000000000     
   0.6333333333333333         0.000000000000000         0.000000000000000      
    0.000000000000000        2.1601886585689081E-002    100.0000000000000     
   0.6666666666666666         0.000000000000000         0.000000000000000      
    0.000000000000000        2.1560095882472808E-002    100.0000000000000     
   0.7000000000000000         0.000000000000000         0.000000000000000      
    0.000000000000000        2.1185055854262159E-002    100.0000000000000     
   0.7333333333333333         0.000000000000000         0.000000000000000      
    0.000000000000000        2.0572903684893135E-002    100.0000000000000     
   0.7666666666666667         0.000000000000000         0.000000000000000      
    0.000000000000000        1.9831798858524919E-002    100.0000000000000     
   0.8000000000000000         0.000000000000000         0.000000000000000      
    0.000000000000000        1.9067869776117474E-002    100.0000000000000     
   0.8333333333333334         0.000000000000000         0.000000000000000      
    0.000000000000000        1.8376789734911525E-002    100.0000000000000     
   0.8666666666666667         0.000000000000000         0.000000000000000      
    0.000000000000000        1.7835617643952636E-002    100.0000000000000     
   0.9000000000000000         0.000000000000000         0.000000000000000      
    0.000000000000000        1.7494473487501324E-002    100.0000000000000     
   0.9333333333333334         0.000000000000000         0.000000000000000      
    0.000000000000000        1.7351827475807886E-002    100.0000000000000     
   0.9666666666666667         0.000000000000000         0.000000000000000      
    0.000000000000000        1.7291690594766099E-002    100.0000000000000     
    1.000000000000000         0.000000000000000         0.000000000000000      
    0.000000000000000        1.7172500328005359E-002    100.0000000000000     
  -1.1400671444188958E-002   3.1323087359530280E-002   2.7017745754014643E-006 
  -1.8468953050493787E-006   1.4052515053798022E-003    100.0000000000000     
   2.1932661889144375E-002   3.1323087359530280E-002  -1.4066874231919491E-003 
   9.6861276343884219E-004  -7.6527196429183348E-006    106.9929254966264     
   5.5265995222477708E-002   3.1323087359530280E-002  -4.9065273344983994E-003 
   1.5773102321050508E-003  -7.7777808831535321E-004    112.4916981388991     
   8.8599328555811041E-002   3.1323087359530280E-002  -9.0893813091029382E-003 
   1.8109911410608963E-003  -1.4240705676497030E-003    117.6654931174783     
   0.1219326618891444        3.1323087359530280E-002  -1.3585390702646085E-002 
   1.7981816808580130E-003  -1.5418248827061218E-003    122.6709606890714     
   0.1552659952224777        3.1323087359530280E-002  -1.7931345212776957E-002 
   1.6959608786143966E-003  -1.2629159344041874E-003    128.1736487884896     
   0.1885993285558111        3.1323087359530280E-002  -2.1962276697939029E-002 
   1.5314298983333536E-003  -5.7357821415925678E-004    132.3635199350439     
   0.2219326618891444        3.1323087359530280E-002  -2.5525822628969314E-002 
   1.3254492331130244E-003   4.5168113854448036E-004    136.2250079481932     
   0.2552659952224777        3.1323087359530280E-002  -2.8529370898380230E-002 
   1.0815553831368958E-003   1.7964617280449380E-003    139.5549532371088     
   0.2885993285558111        3.1323087359530280E-002  -3.0873476343778399E-002 
   8.0045340679358863E-004   3.4194268654004359E-003    142.2172305660114     
   0.3219326618891444        3.1323087359530280E-002  -3.2465467267990371E-002 
   4.8316026287885492E-004   5.2746186612567161E-003    144.2682001643044     
   0.3552659952224777        3.1323087359530280E-002  -3.3229440989380382E-002 
   1.3780211241905878E-004   7.3040687753823212E-003    146.0562278185571     
   0.3885993285558111        3.1323087359530280E-002  -3.3115345758313014E-002 
  -2.2295546069055528E-004   9.4350900983776742E-003    147.2568396414837     
   0.4219326618891444        3.1323087359530280E-002  -3.2111865043780219E-002 
  -5.8155826929625861E-004   1.1578702315185103E-002    147.6729285922800     
   0.4552659952224777        3.1323087359530280E-002  -3.0255932020161202E-002 
  -9.0905021954879636E-004   1.3642777562143845E-002    146.7812629836554     
   0.4885993285558111        3.1323087359530280E-002  -2.7655974782886488E-002 
  -1.1868552285298271E-003   1.5524951497541243E-002    145.4955392125162     
   0.5219326618891443        3.1323087359530280E-002  -2.4449241789265937E-002 
  -1.3974464940438593E-003   1.7150090181454088E-002    142.9093684924580     
   0.5552659952224777        3.1323087359530280E-002  -2.0835112473386739E-002 
  -1.5186390816413736E-003   1.8447458568615557E-002    140.3010304319676     
   0.5885993285558110        3.1323087359530280E-002  -1.7026508440200126E-002 
  -1.5480871371915180E-003   1.9384362671467713E-002    137.1851676583413     
   0.6219326618891443        3.1323087359530280E-002  -1.3252853750633614E-002 
  -1.4869118453628082E-003   1.9957205001700354E-002    134.2618190715668     
   0.6552659952224776        3.1323087359530280E-002  -9.7143680856326790E-003 
  -1.3477854718828290E-003   2.0182403581348565E-002    130.2820448478749     
   0.6885993285558110        3.1323087359530280E-002  -6.5854753048417919E-003 
  -1.1465359567167438E-003   2.0111179734677426E-002    126.3025702377033     
   0.7219326618891443        3.1323087359530280E-002  -3.9946297534160366E-003 
  -9.0419260492921583E-004   1.9813456885902431E-002    122.4728116383277     
   0.7552659952224777        3.1323087359530280E-002  -2.0121608986271556E-003 
  -6.4656199266858365E-004   1.9368859627356586E-002    118.6919297463732     
   0.7885993285558111        3.1323087359530280E-002  -6.5072749522954035E-004 
  -3.9738217220203464E-004   1.8859885571382091E-002    115.0590374530314     
   0.8219326618891444        3.1323087359530280E-002   1.3512155914376697E-004 
  -1.7963069115836956E-004   1.8362930430425497E-002    111.6562096718230     
   0.8552659952224777        3.1323087359530280E-002   4.4377857637144128E-004 
  -1.4072808985045870E-005   1.7941606086440222E-002    108.5492972848082     
   0.8885993285558110        3.1323087359530280E-002   4.1660842055822307E-004 
   8.1902101381195312E-005   1.7633821770857178E-002    105.7870944117282     
   0.9219326618891444        3.1323087359530280E-002   2.4820929557339084E-004 
   9.0348458870231197E-005   1.7473655491810153E-002    103.4034812781934     
   0.9552659952224777        3.1323087359530280E-002   5.4373355186210131E-005 
   3.6077083714905552E-005   1.7356239608925447E-002    101.4036480251030     
   0.9885993285558110        3.1323087359530280E-002   6.7470302528926487E-005 
   1.6790969242188599E-004   1.7489569180989827E-002    100.0000000000000     
  -2.2801342888377915E-002   6.2646174719060560E-002  -6.4261364678607435E-006 
   1.0320946571580098E-005   2.8151004987876614E-003    100.0000000000000     
   1.0531990444955418E-002   6.2646174719060560E-002  -3.3501639483659459E-003 
   4.1521185653265232E-003   7.1669157749619386E-004    112.3374076780429     
   4.3865323778288751E-002   6.2646174719060560E-002  -9.7074058878611931E-003 
   6.5187483720903546E-003  -3.8375090981972652E-005    123.4586015862247     
   7.7198657111622090E-002   6.2646174719060560E-002  -1.7065924345490820E-002 
   7.6537711560188144E-003  -7.0842864317981961E-004    133.4191414195991     
   0.1105319904449554        6.2646174719060560E-002  -2.4954231789243133E-002 
   7.8602216526718512E-003  -8.7420548864563640E-004    143.3553864049663     
   0.1438653237782888        6.2646174719060560E-002  -3.2703566264917036E-002 
   7.5459815775004062E-003  -7.0647395729010027E-004    153.2656944821906     
   0.1771986571116221        6.2646174719060560E-002  -3.9967466671016992E-002 
   6.9029260747253580E-003  -1.8682084087459278E-004    162.4703386277264     
   0.2105319904449554        6.2646174719060560E-002  -4.6463064969449616E-002 
   6.0471123447335259E-003   6.5325858653105852E-004    170.5870108542806     
   0.2438653237782887        6.2646174719060560E-002  -5.1977818737994536E-002 
   5.0068877160271974E-003   1.7858268833248468E-003    177.1201944426903     
   0.2771986571116221        6.2646174719060560E-002  -5.6335319832288358E-002 
   3.7996163331539207E-003   3.1889125833907813E-003    182.6129504220755     
   0.3105319904449554        6.2646174719060560E-002  -5.9373472649247853E-002 
   2.4369196086787550E-003   4.8327492827509163E-003    187.1110955837509     
   0.3438653237782887        6.2646174719060560E-002  -6.0961378741896555E-002 
   9.5222609855407725E-004   6.6673392840954212E-003    190.4598360321178     
   0.3771986571116221        6.2646174719060560E-002  -6.1015456474794123E-002 
  -6.0167170313235900E-004   8.6306195004729989E-003    193.0509673559134     
   0.4105319904449554        6.2646174719060560E-002  -5.9514236069958759E-002 
  -2.1548255091549716E-003   1.0647302025304747E-002    194.7259557154649     
   0.4438653237782888        6.2646174719060560E-002  -5.6519448630898528E-002 
  -3.6180546671168981E-003   1.2620990997556564E-002    195.2224895266533     
   0.4771986571116221        6.2646174719060560E-002  -5.2161144598424462E-002 
  -4.8695387629359684E-003   1.4465727596072613E-002    190.8387078785157     
   0.5105319904449555        6.2646174719060560E-002  -4.6731616420805450E-002 
  -5.8521449675908270E-003   1.6099672925538433E-002    186.7095622662037     
   0.5438653237782888        6.2646174719060560E-002  -4.0474892610936314E-002 
  -6.4960905820762157E-003   1.7447898663447564E-002    182.3164282360996     
   0.5771986571116221        6.2646174719060560E-002  -3.3790310257918690E-002 
  -6.7384721491956555E-003   1.8468856212660981E-002    176.8967805085253     
   0.6105319904449554        6.2646174719060560E-002  -2.7054691751525611E-002 
  -6.6062156886692687E-003   1.9151827000961366E-002    169.5391350922319     
   0.6438653237782888        6.2646174719060560E-002  -2.0616153319745600E-002 
  -6.1206755972437387E-003   1.9506752989010931E-002    162.0409054791228     
   0.6771986571116221        6.2646174719060560E-002  -1.4789890741507387E-002 
  -5.3517549652528813E-003   1.9572471905785514E-002    154.8487834654460     
   0.7105319904449554        6.2646174719060560E-002  -9.8129787012529099E-003 
  -4.3776703724957159E-003   1.9402475932477140E-002    146.9901692074353     
   0.7438653237782888        6.2646174719060560E-002  -5.8428249662495716E-003 
  -3.3008533666085121E-003   1.9075789421883690E-002    139.3823071467703     
   0.7771986571116222        6.2646174719060560E-002  -2.9320167614830584E-003 
  -2.2231544767999682E-003   1.8664435557933616E-002    131.9899975979316     
   0.8105319904449555        6.2646174719060560E-002  -1.0407970185982174E-003 
  -1.2439418380846214E-003   1.8239662235638263E-002    124.9985466528471     
   0.8438653237782888        6.2646174719060560E-002  -3.0678459024607739E-005 
  -4.5132590663205852E-004   1.7867491774704571E-002    118.5796703518635     
   0.8771986571116222        6.2646174719060560E-002   2.9428540231772301E-004 
   7.7361805935077118E-005   1.7577417517253523E-002    112.7875384355726     
   0.9105319904449555        6.2646174719060560E-002   2.4165326547571214E-004 
   3.0310547308055972E-004   1.7450054975949592E-002    107.7267206026997     
   0.9438653237782888        6.2646174719060560E-002  -3.3976554921470830E-005 
   2.0194599794898235E-004   1.7338236584892294E-002    103.3742952248935     
   0.9771986571116221        6.2646174719060560E-002   6.8628756971867195E-005 
   1.7079659162723383E-004   1.7687888351619965E-002    100.0000000000000     
  -3.4202014332566873E-002   9.3969262078590840E-002  -5.4960267427632006E-006 
   1.5618946099728077E-005   3.5959821246820977E-003    100.0000000000000     
  -8.6868099923353981E-004   9.3969262078590840E-002  -5.3985690639990714E-003 
   8.4740199093627198E-003   1.2462873086174478E-003    116.7477806447898     
   3.2464652334099793E-002   9.3969262078590840E-002  -1.4247862236932933E-002 
   1.3319519067797807E-002   5.0392597606432443E-004    132.1842788109171     
   6.5797985667433140E-002   9.3969262078590840E-002  -2.4215812580688469E-002 
   1.5798810973107435E-002  -1.6826826297942359E-004    146.5874870488475     
   9.9131319000766466E-002   9.3969262078590840E-002  -3.4798253269935603E-002 
   1.6518228036528682E-002  -3.6317804292125837E-004    160.2160669922182     
   0.1324646523340998        9.3969262078590840E-002  -4.5214292954211428E-002 
   1.6104163748602913E-002  -2.8501907625523847E-004    172.8089582753376     
   0.1657979856674332        9.3969262078590840E-002  -5.5093185865052116E-002 
   1.4947056122845359E-002   1.2007248949918722E-004    187.6149695666837     
   0.1991313190007665        9.3969262078590840E-002  -6.3966817898239409E-002 
   1.3237929895266677E-002   7.7111431819026964E-004    198.9809272540372     
   0.2324646523340998        9.3969262078590840E-002  -7.1593794111643919E-002 
   1.1132572293311816E-002   1.7000495016189299E-003    210.0763726189345     
   0.2657979856674331        9.3969262078590840E-002  -7.7691731256153515E-002 
   8.6556014302125658E-003   2.8824648164169769E-003    218.1913752758707     
   0.2991313190007665        9.3969262078590840E-002  -8.2054463991186016E-002 
   5.8474206597100668E-003   4.3098180611233529E-003    225.1720460044880     
   0.3324646523340998        9.3969262078590840E-002  -8.4499524764262243E-002 
   2.7769245019753359E-003   5.9438064669786496E-003    230.9355134890387     
   0.3657979856674332        9.3969262078590840E-002  -8.4920082917599754E-002 
  -4.5734434378801758E-004   7.7339368903072024E-003    235.9273734347843     
   0.3991313190007665        9.3969262078590840E-002  -8.3278825613925120E-002 
  -3.7139440376049771E-003   9.6157781417641613E-003    239.2777126453864     
   0.4324646523340998        9.3969262078590840E-002  -7.9626358966420799E-002 
  -6.8242349769909580E-003   1.1536979373631002E-002    241.9347543164728     
   0.4657979856674331        9.3969262078590840E-002  -7.4209532751392027E-002 
  -9.5958171817765430E-003   1.3324190324477738E-002    246.7208956706103     
   0.4991313190007665        9.3969262078590840E-002  -6.7079747095991765E-002 
  -1.1825095667689283E-002   1.4960693555691641E-002    231.3724121095780     
   0.5324646523340998        9.3969262078590840E-002  -5.8912167882076399E-002 
  -1.3387417705576827E-002   1.6401050104887363E-002    224.0112458541894     
   0.5657979856674331        9.3969262078590840E-002  -4.9974361286018364E-002 
  -1.4156581093970081E-002   1.7501744963290253E-002    217.3100607652329     
   0.5991313190007664        9.3969262078590840E-002  -4.0855226304490636E-002 
  -1.4123095601400114E-002   1.8312399745536421E-002    207.3918089810724     
   0.6324646523340998        9.3969262078590840E-002  -3.1991060869735195E-002 
  -1.3366395139546945E-002   1.8791196729846752E-002    196.5703561256279     
   0.6657979856674331        9.3969262078590840E-002  -2.3798664210033373E-002 
  -1.1967120278346835E-002   1.8987404167934936E-002    184.1984703544322     
   0.6991313190007664        9.3969262078590840E-002  -1.6628038121310973E-002 
  -1.0084605379272948E-002   1.8937320231511255E-002    173.4631623549587     
   0.7324646523340999        9.3969262078590840E-002  -1.0725127298022897E-002 
  -7.9178336536128401E-003   1.8714009893430344E-002    161.6512615288133     
   0.7657979856674332        9.3969262078590840E-002  -6.2021830379752159E-003 
  -5.6728176245780448E-003   1.8386447941907563E-002    150.4427702861681     
   0.7991313190007665        9.3969262078590840E-002  -3.0514769821695961E-003 
  -3.5555663677329092E-003   1.8022080200014581E-002    139.7332056177674     
   0.8324646523340998        9.3969262078590840E-002  -1.1354943843356158E-003 
  -1.7533180004287246E-003   1.7686721287914844E-002    129.7956059518906     
   0.8657979856674332        9.3969262078590840E-002  -2.2613279143742646E-004 
  -4.2830302593189145E-004   1.7414000012443968E-002    120.7776929228080     
   0.8991313190007665        9.3969262078590840E-002   1.8188236422230727E-005 
   3.1932946903856892E-004   1.7276204868230203E-002    112.7784298607722     
   0.9324646523340998        9.3969262078590840E-002  -9.3273947132240312E-005 
   4.1749902328348896E-004   1.7209665830587379E-002    105.8037511316484     
   0.9657979856674331        9.3969262078590840E-002    0.000000000000000      
    0.000000000000000        1.7457027914698872E-002    100.0000000000000     
  -4.5602685776755830E-002   0.1252923494381211         0.000000000000000      
    0.000000000000000        3.4647506493349620E-003    100.0000000000000     
  -1.2269352443422497E-002   0.1252923494381211       -7.5381957633304979E-003 
   1.3681778450417650E-002   1.0829188632335677E-003    120.5821639485590     
   2.1063980889910836E-002   0.1252923494381211       -1.8561633263824113E-002 
   2.1675863095541589E-002   3.9902173584616932E-004    140.5893246714087     
   5.4397314223244175E-002   0.1252923494381211       -3.0711343913600350E-002 
   2.5907940018525717E-002  -2.4900006853778952E-004    159.2742671581527     
   8.7730647556577501E-002   0.1252923494381211       -4.3465249511746337E-002 
   2.7401729165938426E-002  -4.1825968337236464E-004    176.9071008184248     
   0.1210639808899108        0.1252923494381211       -5.6057535340829127E-002 
   2.7050396427407170E-002  -3.8827501172799801E-004    194.5901506047343     
   0.1543973142232442        0.1252923494381211       -6.7949467341293854E-002 
   2.5370920564907990E-002  -7.8284912668309035E-005    208.5595820379970     
   0.1877306475565775        0.1252923494381211       -7.8842892646740076E-002 
   2.2777306966925648E-002   5.1173646375945981E-004    223.8638022411489     
   0.2210639808899108        0.1252923494381211       -8.8241360284487841E-002 
   1.9409630157853748E-002   1.2754875455169613E-003    243.6525483032004     
   0.2543973142232442        0.1252923494381211       -9.5887559950405085E-002 
   1.5414282239091212E-002   2.2827373593634825E-003    253.0687419453850     
   0.2877306475565775        0.1252923494381211       -0.1014654527984689      
   1.0852971354533052E-002   3.5471270411001794E-003    261.6897016312983     
   0.3210639808899108        0.1252923494381211       -0.1048178654098696      
   5.8450447601549275E-003   5.0370262385937012E-003    268.5077451495536     
   0.3543973142232442        0.1252923494381211       -0.1057864416026887      
   5.4071126542072395E-004   6.7214649609008354E-003    272.5251651405889     
   0.3877306475565775        0.1252923494381211       -0.1043005427348318      
  -4.8661194896912740E-003   8.5265968825224085E-003    276.8571556776941     
   0.4210639808899108        0.1252923494381211       -0.1003869190219111      
  -1.0095335022262456E-002   1.0409594872350630E-002    278.6004398582829     
   0.4543973142232441        0.1252923494381211       -9.4204065190972491E-002 
  -1.4878517673501708E-002   1.2251012309632619E-002    277.6962571312797     
   0.4877306475565775        0.1252923494381211       -8.6064380287529330E-002 
  -1.8864074128701166E-002   1.3970232784714881E-002    280.7469180841027     
   0.5210639808899108        0.1252923494381211       -7.6344650025197150E-002 
  -2.1775781668888713E-002   1.5486902564609509E-002    269.5578760455769     
   0.5543973142232441        0.1252923494381211       -6.5661935615829864E-002 
  -2.3451474835193161E-002   1.6737116039456903E-002    256.6499946034419     
   0.5877306475565775        0.1252923494381211       -5.4520066889799081E-002 
  -2.3824723924834344E-002   1.7627153148261587E-002    246.2108685693157     
   0.6210639808899108        0.1252923494381211       -4.3501177259908763E-002 
  -2.2929160822061236E-002   1.8239244098981817E-002    231.4689495714736     
   0.6543973142232441        0.1252923494381211       -3.3180360286425341E-002 
  -2.0974411733544363E-002   1.8530266898266805E-002    214.2415980699306     
   0.6877306475565774        0.1252923494381211       -2.3935686864513972E-002 
  -1.8113118909249607E-002   1.8552262829221025E-002    199.6812832060732     
   0.7210639808899109        0.1252923494381211       -1.6135777087868113E-002 
  -1.4663990323785066E-002   1.8388124361194011E-002    185.0383767112549     
   0.7543973142232442        0.1252923494381211       -9.9766593612760635E-003 
  -1.0969298919833861E-002   1.8099389378414470E-002    170.0306198585025     
   0.7877306475565775        0.1252923494381211       -5.4911073577377633E-003 
  -7.3694007674070441E-003   1.7753086462701771E-002    155.6152736550928     
   0.8210639808899108        0.1252923494381211       -2.5651531425040712E-003 
  -4.1853356595769982E-003   1.7418237945546297E-002    141.9339842263566     
   0.8543973142232442        0.1252923494381211       -9.5428539954698212E-004 
  -1.6926937382798208E-003   1.7138801513053390E-002    129.5683286683153     
   0.8877306475565775        0.1252923494381211       -2.9130480864074338E-004 
  -9.3441749068915052E-005   1.6973119563795144E-002    118.4135337981298     
   0.9210639808899108        0.1252923494381211       -1.5627327033796294E-004 
   4.6610454676003493E-004   1.6911118260088988E-002    108.5434283695989     
   0.9543973142232441        0.1252923494381211         0.000000000000000      
    0.000000000000000        1.7048291933380855E-002    100.0000000000000     
  -5.7003357220944781E-002   0.1566154367976514         0.000000000000000      
    0.000000000000000        2.5090899266484936E-003    100.0000000000000     
  -2.3670023887611448E-002   0.1566154367976514       -9.7316030519278493E-003 
   1.9328978653059683E-002   2.5796927251996854E-004    123.8609676001257     
   9.6633094457218849E-003   0.1566154367976514       -2.2694275867652883E-002 
   3.0986285558358674E-002  -3.0782118664779776E-004    146.5705759423179     
   4.2996642779055225E-002   0.1566154367976514       -3.6669275912214000E-002 
   3.7365413160113173E-002  -8.7367195892366987E-004    168.5898010386647     
   7.6329976112388551E-002   0.1566154367976514       -5.1199228544784127E-002 
   3.9898889247598698E-002  -1.0186633957204052E-003    188.7690290027363     
   0.1096633094457219        0.1566154367976514       -6.5467458391181288E-002 
   3.9756161841555879E-002  -9.7320291469903152E-004    206.9306070016457     
   0.1429966427790552        0.1566154367976514       -7.9145000989952419E-002 
   3.7746056319395940E-002  -7.5449714172619482E-004    226.9001845066226     
   0.1763299761123885        0.1566154367976514       -9.1509596408742677E-002 
   3.4217766443666850E-002  -2.7892969574090214E-004    240.4471953338608     
   0.2096633094457219        0.1566154367976514       -0.1025128720826780      
   2.9607590218749952E-002   4.3839922673587841E-004    259.3098881071568     
   0.2429966427790552        0.1566154367976514       -0.1115161387769531      
   2.3981542619294138E-002   1.2975086837945064E-003    279.0897565886598     
   0.2763299761123885        0.1566154367976514       -0.1183683538305365      
   1.7511109977409223E-002   2.4184931160870717E-003    288.4755463653185     
   0.3096633094457219        0.1566154367976514       -0.1226833593683888      
   1.0374514407417931E-002   3.7902939463679750E-003    298.2049275846339     
   0.3429966427790552        0.1566154367976514       -0.1243356835460394      
   2.7281049677519557E-003   5.3800715023140039E-003    305.0401365483701     
   0.3763299761123886        0.1566154367976514       -0.1232262427546498      
  -5.1234739321766639E-003   7.1642982494627460E-003    307.4345278386181     
   0.4096633094457219        0.1566154367976514       -0.1193642298859901      
  -1.2862197278044786E-002   9.0570320373635216E-003    309.0410267472468     
   0.4429966427790552        0.1566154367976514       -0.1128844547760726      
  -2.0058164834756219E-002   1.0985940066546955E-002    306.7937296668249     
   0.4763299761123885        0.1566154367976514       -0.1040552274989575      
  -2.6296736802600168E-002   1.2822406250081969E-002    299.1147097964906     
   0.5096633094457219        0.1566154367976514       -9.3270319902999416E-002 
  -3.1071197662423018E-002   1.4511925381224004E-002    300.1914736607548     
   0.5429966427790552        0.1566154367976514       -8.1065948842736296E-002 
  -3.4112445541041536E-002   1.5900786571902435E-002    296.4083405231908     
   0.5763299761123886        0.1566154367976514       -6.8185139696900293E-002 
  -3.5235617112873763E-002   1.6986582008444061E-002    268.5904541722534     
   0.6096633094457219        0.1566154367976514       -5.5198293810251590E-002 
  -3.4563094612582682E-002   1.7701138270422075E-002    267.0308580770789     
   0.6429966427790552        0.1566154367976514       -4.2764980919763329E-002 
  -3.2149311345825056E-002   1.8123706146765225E-002    246.9176650002071     
   0.6763299761123885        0.1566154367976514       -3.1501940427664965E-002 
  -2.8376179071171511E-002   1.8239968638452068E-002    227.5741896300271     
   0.7096633094457220        0.1566154367976514       -2.1797452986087755E-002 
  -2.3571859848102495E-002   1.8115700230479509E-002    209.3323240055731     
   0.7429966427790553        0.1566154367976514       -1.3954338896813785E-002 
  -1.8234044061079868E-002   1.7831367201206556E-002    190.2797490106525     
   0.7763299761123886        0.1566154367976514       -8.0753813840560799E-003 
  -1.2868679438902587E-002   1.7468595146174066E-002    172.4316295271762     
   0.8096633094457220        0.1566154367976514       -4.0738254065356260E-003 
  -7.9553155107976448E-003   1.7100305507413902E-002    155.1404418150855     
   0.8429966427790553        0.1566154367976514       -1.7043648911966181E-003 
  -3.9232031867617442E-003   1.6782575056558398E-002    139.0439040306135     
   0.8763299761123886        0.1566154367976514       -5.7731950877897356E-004 
  -1.1078272134457195E-003   1.6566114852168422E-002    124.5239475389285     
   0.9096633094457219        0.1566154367976514       -2.0101222021780651E-004 
   2.3930612257170919E-004   1.6477349088841499E-002    111.5195375201206     
   0.9429966427790553        0.1566154367976514         0.000000000000000      