 VARIABLES="X" "Y" "U<sub>x" "V<sub>y" "Pressure" "Temprature"
 Zone i=           51 ,j=           51 ,k=1,f=point
    0.000000000000000         0.000000000000000         0.000000000000000      
    0.000000000000000         0.000000000000000         100.0000000000000     
   2.0000000000000000E-002    0.000000000000000         0.000000000000000      
  -1.1304539078724811E-007   1.5072750150780248E-005    100.0000000000000     
   4.0000000000000001E-002    0.000000000000000        5.6522928273051433E-008 
  -1.8982055634394493E-008  -1.2917171835172533E-004    100.0000000000000     
   5.9999999999999998E-002    0.000000000000000       -4.8439296415854473E-007 
   1.6146515586504460E-007  -4.0083186539913791E-004    100.0000000000000     
   8.0000000000000002E-002    0.000000000000000         0.000000000000000      
   5.0105665850721208E-007  -7.3469371248876365E-004    100.0000000000000     
   0.1000000000000000         0.000000000000000         0.000000000000000      
    0.000000000000000       -1.0800685339942802E-003    100.0000000000000     
   0.1200000000000000         0.000000000000000         0.000000000000000      
    0.000000000000000       -1.4088788712541187E-003    100.0000000000000     
   0.1400000000000000         0.000000000000000         0.000000000000000      
    0.000000000000000       -1.7000308579526438E-003    100.0000000000000     
   0.1600000000000000         0.000000000000000         0.000000000000000      
    0.000000000000000       -1.9404459058021328E-003    100.0000000000000     
   0.1800000000000000         0.000000000000000         0.000000000000000      
    0.000000000000000       -2.1221691786157109E-003    100.0000000000000     
   0.2000000000000000         0.000000000000000         0.000000000000000      
    0.000000000000000       -2.2406742988814576E-003    100.0000000000000     
   0.2200000000000000         0.000000000000000         0.000000000000000      
    0.000000000000000       -2.2936594034747957E-003    100.0000000000000     
   0.2400000000000000         0.000000000000000         0.000000000000000      
    0.000000000000000       -2.2802137652713269E-003    100.0000000000000     
   0.2600000000000000         0.000000000000000         0.000000000000000      
    0.000000000000000       -2.2003123412441044E-003    100.0000000000000     
   0.2800000000000000         0.000000000000000         0.000000000000000      
    0.000000000000000       -2.0543875790049529E-003    100.0000000000000     
   0.3000000000000000         0.000000000000000         0.000000000000000      
    0.000000000000000       -1.8432102149031045E-003    100.0000000000000     
   0.3200000000000000         0.000000000000000         0.000000000000000      
    0.000000000000000       -1.5677613165224909E-003    100.0000000000000     
   0.3400000000000000         0.000000000000000         0.000000000000000      
    0.000000000000000       -1.2293228030346465E-003    100.0000000000000     
   0.3600000000000000         0.000000000000000         0.000000000000000      
    0.000000000000000       -8.2956993299485731E-004    100.0000000000000     
   0.3800000000000000         0.000000000000000         0.000000000000000      
    0.000000000000000       -3.7075819501834788E-004    100.0000000000000     
   0.4000000000000000         0.000000000000000         0.000000000000000      
    0.000000000000000        1.4408258117585499E-004    100.0000000000000     
   0.4200000000000000         0.000000000000000         0.000000000000000      
    0.000000000000000        7.1094173311307793E-004    100.0000000000000     
   0.4400000000000000         0.000000000000000         0.000000000000000      
    0.000000000000000        1.3246416332885242E-003    100.0000000000000     
   0.4600000000000000         0.000000000000000         0.000000000000000      
    0.000000000000000        1.9786869853849988E-003    100.0000000000000     
   0.4800000000000000         0.000000000000000         0.000000000000000      
    0.000000000000000        2.6651678282886260E-003    100.0000000000000     
   0.5000000000000000         0.000000000000000         0.000000000000000      
    0.000000000000000        3.3747302932112980E-003    100.0000000000000     
   0.5200000000000000         0.000000000000000         0.000000000000000      
    0.000000000000000        4.0966267538749936E-003    100.0000000000000     
   0.5400000000000000         0.000000000000000         0.000000000000000      
    0.000000000000000        4.8188534903944652E-003    100.0000000000000     
   0.5600000000000001         0.000000000000000         0.000000000000000      
    0.000000000000000        5.5283798358078838E-003    100.0000000000000     
   0.5800000000000000         0.000000000000000         0.000000000000000      
    0.000000000000000        6.2114678751637774E-003    100.0000000000000     
   0.6000000000000000         0.000000000000000         0.000000000000000      
    0.000000000000000        6.8540762966904679E-003    100.0000000000000     
   0.6200000000000000         0.000000000000000         0.000000000000000      
    0.000000000000000        7.4423359457162063E-003    100.0000000000000     
   0.6400000000000000         0.000000000000000         0.000000000000000      
    0.000000000000000        7.9630790811701414E-003    100.0000000000000     
   0.6600000000000000         0.000000000000000         0.000000000000000      
    0.000000000000000        8.4043983099252092E-003    100.0000000000000     
   0.6800000000000001         0.000000000000000         0.000000000000000      
    0.000000000000000        8.7562087499514617E-003    100.0000000000000     
   0.7000000000000000         0.000000000000000         0.000000000000000      
    0.000000000000000        9.0107810984792619E-003    100.0000000000000     
   0.7200000000000000         0.000000000000000         0.000000000000000      
    0.000000000000000        9.1632212809225708E-003    100.0000000000000     
   0.7400000000000000         0.000000000000000         0.000000000000000      
    0.000000000000000        9.2118569095669713E-003    100.0000000000000     
   0.7600000000000000         0.000000000000000         0.000000000000000      
    0.000000000000000        9.1585340690028220E-003    100.0000000000000     
   0.7800000000000000         0.000000000000000         0.000000000000000      
    0.000000000000000        9.0087591724903951E-003    100.0000000000000     
   0.8000000000000000         0.000000000000000         0.000000000000000      
    0.000000000000000        8.7717503796869642E-003    100.0000000000000     
   0.8200000000000000         0.000000000000000         0.000000000000000      
    0.000000000000000        8.4603478340772760E-003    100.0000000000000     
   0.8400000000000000         0.000000000000000         0.000000000000000      
    0.000000000000000        8.0908688141147281E-003    100.0000000000000     
   0.8600000000000000         0.000000000000000         0.000000000000000      
    0.000000000000000        7.6828885964524453E-003    100.0000000000000     
   0.8800000000000000         0.000000000000000         0.000000000000000      
    0.000000000000000        7.2592315231286095E-003    100.0000000000000     
   0.9000000000000000         0.000000000000000         0.000000000000000      
    0.000000000000000        6.8456010356322114E-003    100.0000000000000     
   0.9200000000000000         0.000000000000000         0.000000000000000      
    0.000000000000000        6.4717361495501618E-003    100.0000000000000     
   0.9400000000000000         0.000000000000000         0.000000000000000      
    0.000000000000000        6.1691025331541719E-003    100.0000000000000     
   0.9600000000000000         0.000000000000000         0.000000000000000      
    0.000000000000000        5.9770203639179275E-003    100.0000000000000     
   0.9800000000000000         0.000000000000000         0.000000000000000      
    0.000000000000000        5.8991618000792953E-003    100.0000000000000     
    1.000000000000000         0.000000000000000         0.000000000000000      
    0.000000000000000        5.9078472722927291E-003    100.0000000000000     
    0.000000000000000        2.0000000000000000E-002  -1.8840806291685471E-008 
   1.8416995591725514E-008  -1.4941298045129322E-005    100.0000000000000     
   2.0000000000000000E-002   2.0000000000000000E-002   3.3990196847298219E-005 
  -3.3875500452800474E-005  -4.3356341237483449E-008    101.0291948139712     
   4.0000000000000001E-002   2.0000000000000000E-002   5.5522061340192001E-005 
  -1.0246412469883918E-006  -1.1360367075753295E-004    102.0565171084342     
   5.9999999999999998E-002   2.0000000000000000E-002  -3.7726213954645583E-005 
   5.6321388938006190E-005  -2.9487785636414201E-004    103.0762844158571     
   8.0000000000000002E-002   2.0000000000000000E-002  -2.6695411003886579E-004 
   1.1760275393300866E-004  -5.2671163652541096E-004    104.0864697114460     
   0.1000000000000000        2.0000000000000000E-002  -6.3494066988663647E-004 
   1.7503343134871575E-004  -7.7537339770670697E-004    105.0869634118300     
   0.1200000000000000        2.0000000000000000E-002  -1.1282100770650439E-003 
   2.2481626572954638E-004  -1.0182210213310727E-003    106.0791502646319     
   0.1400000000000000        2.0000000000000000E-002  -1.7289916478080629E-003 
   2.6603583862997576E-004  -1.2372423385598359E-003    107.0625754573683     
   0.1600000000000000        2.0000000000000000E-002  -2.4175957897689679E-003 
   2.9873611722551285E-004  -1.4200591373353204E-003    108.0389939386073     
   0.1800000000000000        2.0000000000000000E-002  -3.1747515050501770E-003 
   3.2341902938286737E-004  -1.5580504003301202E-003    109.0069140642381     
   0.2000000000000000        2.0000000000000000E-002  -3.9823329314602777E-003 
   3.4078221076791243E-004  -1.6456207845238994E-003    109.9651057696321     
   0.2200000000000000        2.0000000000000000E-002  -4.8237258919001449E-003 
   3.5154939992500781E-004  -1.6792695419093897E-003    110.9101832453084     
   0.2400000000000000        2.0000000000000000E-002  -5.6838241042591140E-003 
   3.5636265094624102E-004  -1.6570221473604647E-003    111.8365420159149     
   0.2600000000000000        2.0000000000000000E-002  -6.5488657703730423E-003 
   3.5578092994453727E-004  -1.5778787365350916E-003    112.7374025308794     
   0.2800000000000000        2.0000000000000000E-002  -7.4061882971595203E-003 
   3.5020531411696196E-004  -1.4415962457645240E-003    113.6046980146426     
   0.3000000000000000        2.0000000000000000E-002  -8.2439566121021678E-003 
   3.3993960021215687E-004  -1.2483888447797947E-003    114.4308752646762     
   0.3200000000000000        2.0000000000000000E-002  -9.0508910867477983E-003 
   3.2515195928952784E-004  -9.9893790376686742E-004    115.2091246815342     
   0.3400000000000000        2.0000000000000000E-002  -9.8160589597109504E-003 
   3.0594105634588358E-004  -6.9432217472949805E-004    115.9340307115350     
   0.3600000000000000        2.0000000000000000E-002  -1.0528712089782738E-002 
   2.8234333827774648E-004  -3.3612784315006092E-004    116.6014083362724     
   0.3800000000000000        2.0000000000000000E-002  -1.1178221535902633E-002 
   2.5438409531496650E-004   7.3465433876831925E-005    117.2080413443485     
   0.4000000000000000        2.0000000000000000E-002  -1.1754086868762621E-002 
   2.2210862964345350E-004   5.3153742030803382E-004    117.7512216428563     
   0.4200000000000000        2.0000000000000000E-002  -1.2246039692938688E-002 
   1.8562228243434068E-004   1.0342916289427821E-003    118.2284053134154     
   0.4400000000000000        2.0000000000000000E-002  -1.2644224827694193E-002 
   1.4512257555903920E-004   1.5769232027807905E-003    118.6369796599750     
   0.4600000000000000        2.0000000000000000E-002  -1.2939455027675940E-002 
   1.0092815309210364E-004   2.1535181037954654E-003    118.9741762524888     
   0.4800000000000000        2.0000000000000000E-002  -1.3123522548236401E-002 
   5.3500474976976213E-005   2.7569928965027299E-003    119.2370809752264     
   0.5000000000000000        2.0000000000000000E-002  -1.3189552041853942E-002 
   3.4581098453655887E-006   3.3790895911898189E-003    119.4227070648266     
   0.5200000000000000        2.0000000000000000E-002  -1.3132374785294488E-002 
  -4.8417760165629439E-005   4.0104344919153065E-003    119.5280981310701     
   0.5400000000000000        2.0000000000000000E-002  -1.2948903053868682E-002 
  -1.0118726538004432E-004   4.6406682242022953E-003    119.5504432590918     
   0.5600000000000001        2.0000000000000000E-002  -1.2638481752341127E-002 
  -1.5376576436679977E-004   5.2586499610487742E-003    119.4871947500654     
   0.5800000000000000        2.0000000000000000E-002  -1.2203193927563747E-002 
  -2.0494782777140559E-004   5.8527349341410372E-003    119.3361847586053     
   0.6000000000000000        2.0000000000000000E-002  -1.1648097249834588E-002 
  -2.5344102775849394E-004   6.4111193238656564E-003    119.0957384732021     
   0.6200000000000000        2.0000000000000000E-002  -1.0981369924189242E-002 
  -2.9790847434169623E-004   6.9222421642010906E-003    118.7647806142174     
   0.6400000000000000        2.0000000000000000E-002  -1.0214347843064844E-002 
  -3.3701893127268556E-004   7.3752280667156870E-003    118.3429332975899     
   0.6600000000000000        2.0000000000000000E-002  -9.3614381076811953E-003 
  -3.6950165101638565E-004   7.7603522765156471E-003    117.8305983048709     
   0.6800000000000001        2.0000000000000000E-002  -8.4399014326944216E-003 
  -3.9420481755007435E-004   8.0695022756028661E-003    117.2290411295194     
   0.7000000000000000        2.0000000000000000E-002  -7.4694987931560016E-003 
  -4.1015149330930691E-004   8.2966164746852891E-003    116.5404529829148     
   0.7200000000000000        2.0000000000000000E-002  -6.4720106952357763E-003 
  -4.1659639137596585E-004   8.4380649887313836E-003    115.7680424333230     
   0.7400000000000000        2.0000000000000000E-002  -5.4706339042474329E-003 
  -4.1306804776742087E-004   8.4929695884823492E-003    114.9160942226226     
   0.7600000000000000        2.0000000000000000E-002  -4.4892804789220860E-003 
  -3.9941694413628574E-004   8.4634076425700484E-003    113.9900381368978     
   0.7800000000000000        2.0000000000000000E-002  -3.5517985766986976E-003 
  -3.7582849820948748E-004   8.3545486983715132E-003    112.9964906208162     
   0.8000000000000000        2.0000000000000000E-002  -2.6811351330921877E-003 
  -3.4284826269323807E-004   8.1746499443966936E-003    111.9430932285138     
   0.8200000000000000        2.0000000000000000E-002  -1.8984983962043859E-003 
  -3.0137918273838682E-004   7.9349478938439046E-003    110.8384534655305     
   0.8400000000000000        2.0000000000000000E-002  -1.2224545311895919E-003 
  -2.5268920013332826E-004   7.6495532550752447E-003    109.6916350688359     
   0.8600000000000000        2.0000000000000000E-002  -6.6811690442249844E-004 
  -1.9841957246333929E-004   7.3350286241015174E-003    108.5121211004026     
   0.8800000000000000        2.0000000000000000E-002  -2.4588947136552447E-004 
  -1.4070674117705023E-004   7.0105825241774337E-003    107.3091094783085     
   0.9000000000000000        2.0000000000000000E-002   3.9132437400382160E-005 
  -8.2206074118097434E-005   6.6963595964592898E-003    106.0915025411923     
   0.9200000000000000        2.0000000000000000E-002   1.9085059673502793E-004 
  -2.6905862240298563E-005   6.4164451581020234E-003    104.8674357242357     
   0.9400000000000000        2.0000000000000000E-002   2.2017771177392507E-004 
   2.0218537310732903E-005   6.1875693472764857E-003    103.6426415210657     
   0.9600000000000000        2.0000000000000000E-002   1.6387581853902561E-004 
   4.7789171673274527E-005   6.0431177352286512E-003    102.4242300685344     
   0.9800000000000000        2.0000000000000000E-002   5.3608185372499894E-005 
   4.4969889631981414E-005   5.9525538205820487E-003    101.2075031294263     
    1.000000000000000        2.0000000000000000E-002   1.4758761333693873E-005 
   2.9528410014922736E-005   6.0239344513569213E-003    100.0000000000000     
    0.000000000000000        4.0000000000000001E-002   1.4613494424464232E-007 
  -1.8305787132892537E-007   1.2981304143603898E-004    100.0000000000000     
   2.0000000000000000E-002   4.0000000000000001E-002   1.1879443175047275E-006 
  -5.5540044759433810E-005   1.1365580349766757E-004    102.0519041330266     
   4.0000000000000001E-002   4.0000000000000001E-002  -9.5498317857317709E-005 
   9.5049731189470276E-005  -1.5833365030994909E-006    104.1125548609179     
   5.9999999999999998E-002   4.0000000000000001E-002  -3.8882062881920526E-004 
   3.3403462344321956E-004  -1.7433059270456099E-004    106.1622710180852     
   8.0000000000000002E-002   4.0000000000000001E-002  -9.1158289516449806E-004 
   5.9271371544277905E-004  -3.8326185675024782E-004    108.1934331722014     
   0.1000000000000000        4.0000000000000001E-002  -1.6665680852241797E-003 
   8.3850759607080139E-004  -6.0356770848752923E-004    110.2047159889768     
   0.1200000000000000        4.0000000000000001E-002  -2.6358538025465818E-003 
   1.0556985546195741E-003  -8.1694851991201639E-004    112.1893109256838     
   0.1400000000000000        4.0000000000000001E-002  -3.7920309399500423E-003 
   1.2381277180886694E-003  -1.0085428101994792E-003    114.1619963426391     
   0.1600000000000000        4.0000000000000001E-002  -5.1033461661985210E-003 
   1.3844661702611758E-003  -1.1676193367681756E-003    116.1133386986399     
   0.1800000000000000        4.0000000000000001E-002  -6.5372878446061699E-003 
   1.4959554627505039E-003  -1.2864528891640393E-003    118.0489585237283     
   0.2000000000000000        4.0000000000000001E-002  -8.0622709851914873E-003 
   1.5749149788791012E-003  -1.3598472301005835E-003    119.9652586246662     
   0.2200000000000000        4.0000000000000001E-002  -9.6485517479941735E-003 
   1.6240001118429533E-003  -1.3844381553010893E-003    121.8552701691171     
   0.2400000000000000        4.0000000000000001E-002  -1.1268455155470813E-002 
   1.6458036148117344E-003  -1.3581006812752559E-003    123.7104721816961     
   0.2600000000000000        4.0000000000000001E-002  -1.2896300137765659E-002 
   1.6424998080504616E-003  -1.2797647832056738E-003    125.5142504939659     
   0.2800000000000000        4.0000000000000001E-002  -1.4508150369456871E-002 
   1.6159007914977187E-003  -1.1488925512785947E-003    127.2513440047477     
   0.3000000000000000        4.0000000000000001E-002  -1.6081432646133403E-002 
   1.5672447897395387E-003  -9.6557831273674170E-004    128.9052521991234     
   0.3200000000000000        4.0000000000000001E-002  -1.7594600541856676E-002 
   1.4974106035165742E-003  -7.3024579823288563E-004    130.4623815219910     
   0.3400000000000000        4.0000000000000001E-002  -1.9026796060524445E-002 
   1.4068963576929123E-003  -4.4381620491657235E-004    131.9117339807114     
   0.3600000000000000        4.0000000000000001E-002  -2.0357667595561089E-002 
   1.2960285903250376E-003  -1.0766298786015482E-004    133.2453512801655     
   0.3800000000000000        4.0000000000000001E-002  -2.1567265319899123E-002 
   1.1650755358927601E-003   2.7623659276721787E-004    134.4571131222482     
   0.4000000000000000        4.0000000000000001E-002  -2.2636109118547618E-002 
   1.0144261619876970E-003   7.0520670775825326E-004    135.5419193201933     
   0.4200000000000000        4.0000000000000001E-002  -2.3545379862964573E-002 
   8.4473809799713009E-004   1.1757362020396809E-003    136.4948433658935     
   0.4400000000000000        4.0000000000000001E-002  -2.4277254083159963E-002 
   6.5708214636538143E-004   1.6833680037434860E-003    137.3107256660214     
   0.4600000000000000        4.0000000000000001E-002  -2.4815350125232540E-002 
   4.5306012217363230E-004   2.2226065599867516E-003    137.9840180111353     
   0.4800000000000000        4.0000000000000001E-002  -2.5145268626873878E-002 
   2.3489559632015221E-004   2.7868660430744761E-003    138.5088486324673     
   0.5000000000000000        4.0000000000000001E-002  -2.5255194951332379E-002 
   5.4902489737190726E-006   3.3684670925225135E-003    138.8791931995039     
   0.5200000000000000        4.0000000000000001E-002  -2.5136531259438898E-002 
  -2.3155765220272067E-004   3.9586930166920411E-003    139.0890972601322     
   0.5400000000000000        4.0000000000000001E-002  -2.4784521069217007E-002 
  -4.7197593390565888E-004   4.5479116126833224E-003    139.1329129639399     
   0.5600000000000001        4.0000000000000001E-002  -2.4198827986606091E-002 
  -7.1088397779949907E-004   5.1257662657825829E-003    139.0055363436613     
   0.5800000000000000        4.0000000000000001E-002  -2.3384029764112961E-002 
  -9.4290110367338965E-004   5.6814355443726679E-003    138.7026397522793     
   0.6000000000000000        4.0000000000000001E-002  -2.2349989950892650E-002 
  -1.1622958010283322E-003   6.2039565392633641E-003    138.2208978860334     
   0.6200000000000000        4.0000000000000001E-002  -2.1112072915021974E-002 
  -1.3631720403022689E-003   6.6826014026283255E-003    137.5582021853334     
   0.6400000000000000        4.0000000000000001E-002  -1.9691171896572216E-002 
  -1.5396852839557852E-003   7.1072938063279556E-003    136.7138493913249     
   0.6600000000000000        4.0000000000000001E-002  -1.8113529036174809E-002 
  -1.6862809859427266E-003   7.4690435346334806E-003    135.6887129489410     
   0.6800000000000001        4.0000000000000001E-002  -1.6410330216242549E-002 
  -1.7979408548818518E-003   7.7603828237371589E-003    134.4853462919936     
   0.7000000000000000        4.0000000000000001E-002  -1.4617077490602929E-002 
  -1.8704329147488684E-003   7.9757684693514529E-003    133.1081809357395     
   0.7200000000000000        4.0000000000000001E-002  -1.2772733556271225E-002 
  -1.9005365315411984E-003   8.1119491770391804E-003    131.5635565252819     
   0.7400000000000000        4.0000000000000001E-002  -1.0918674483567120E-002 
  -1.8862654791082358E-003   8.1682294291736731E-003    129.8600049673323     
   0.7600000000000000        4.0000000000000001E-002  -9.0974477325982076E-003 
  -1.8270089982306771E-003   8.1467068498843314E-003    128.0082930698679     
   0.7800000000000000        4.0000000000000001E-002  -7.3513951683886808E-003 
  -1.7236975812205217E-003   8.0523014774417419E-003    126.0214905368774     
   0.8000000000000000        4.0000000000000001E-002  -5.7211747096761363E-003 
  -1.5788379372947390E-003   7.8928004581255984E-003    123.9152234887552     
   0.8200000000000000        4.0000000000000001E-002  -4.2442151098344054E-003 
  -1.3965614707821788E-003   7.6786969445851892E-003    121.7063623650291     
   0.8400000000000000        4.0000000000000001E-002  -2.9531067315793544E-003 
  -1.1826696605553566E-003   7.4230264529734444E-003    119.4137361276374     
   0.8600000000000000        4.0000000000000001E-002  -1.8740411742674615E-003 
  -9.4474596410432706E-004   7.1409049293446993E-003    117.0554246410958     
   0.8800000000000000        4.0000000000000001E-002  -1.0247179158076754E-003 
  -6.9243145757711094E-004   6.8497218059290410E-003    114.6507702530888     
   0.9000000000000000        4.0000000000000001E-002  -4.1300081275373618E-004 
  -4.3815018676833447E-004   6.5671174874881964E-003    112.2160822550973     
   0.9200000000000000        4.0000000000000001E-002  -3.1982411738782378E-005 
  -1.9822552748771541E-004   6.3148438240363180E-003    109.7676856375016     
   0.9400000000000000        4.0000000000000001E-002   1.3731897164974733E-004 
   4.1532860226926366E-006   6.1055128098809076E-003    107.3158812424131     
   0.9600000000000000        4.0000000000000001E-002   1.4826453533326885E-004 
   1.3677631961971052E-004   5.9765906389196606E-003    104.8719002174811     
   0.9800000000000000        4.0000000000000001E-002   4.3008981942953637E-005 
   1.5541813381863651E-004   5.8913323137052736E-003    102.4278765269950     
    1.000000000000000        4.0000000000000001E-002   1.5190026878318534E-005 
   3.0236403388863104E-005   6.0215100685390805E-003    100.0000000000000     
    0.000000000000000        5.9999999999999998E-002  -1.6226724147656856E-007 
   4.8679772254080400E-007   4.0709676980211189E-004    100.0000000000000     
   2.0000000000000000E-002   5.9999999999999998E-002  -5.7784353134847889E-005 
   3.9450319576234450E-005   2.9656153487922076E-004    103.0838529934002     
   4.0000000000000001E-002   5.9999999999999998E-002  -3.4343704408654896E-004 
   3.9123635964457155E-004   1.6828894096724523E-004    106.1823985698959     
   5.9999999999999998E-002   5.9999999999999998E-002  -9.0135792065605647E-004 
   8.8522427094147379E-004  -7.7241229673768571E-006    109.2672800752109     
   8.0000000000000002E-002   5.9999999999999998E-002  -1.7654774859281288E-003 
   1.4131409316913244E-003  -1.9802000157934912E-004    112.3275571972209     
   0.1000000000000000        5.9999999999999998E-002  -2.9298866868686449E-003 
   1.9175335754442863E-003  -3.9359612744523071E-004    115.3550262994817     
   0.1200000000000000        5.9999999999999998E-002  -4.3732010801750707E-003 
   2.3672097898803641E-003  -5.7847549607843469E-004    118.3538323657811     
   0.1400000000000000        5.9999999999999998E-002  -6.0608853572995305E-003 
   2.7483482618661289E-003  -7.4254378539764191E-004    121.2957853372029     
   0.1600000000000000        5.9999999999999998E-002  -7.9533702645536511E-003 
   3.0566263494336251E-003  -8.7696661138663443E-004    124.2311704304645     
   0.1800000000000000        5.9999999999999998E-002  -1.0008759235002699E-002 
   3.2928946057942431E-003  -9.7563051341585584E-004    127.1314985011211     
   0.2000000000000000        5.9999999999999998E-002  -1.2185567858172184E-002 
   3.4607762692443465E-003  -1.0340256567431460E-003    129.9960607194988     
   0.2200000000000000        5.9999999999999998E-002  -1.4443912848258975E-002 
   3.5649621348828866E-003  -1.0490666542215304E-003    132.8371150954995     
   0.2400000000000000        5.9999999999999998E-002  -1.6745891347483520E-002 
   3.6100433870235953E-003  -1.0188687537832943E-003    135.6204627943542     
   0.2600000000000000        5.9999999999999998E-002  -1.9055858732164480E-002 
   3.6004058335613511E-003  -9.4208920049750229E-004    138.3327153396217     
   0.2800000000000000        5.9999999999999998E-002  -2.1340160485628208E-002 
   3.5394059602080570E-003  -8.1829321998131322E-004    140.9435308959983     
   0.3000000000000000        5.9999999999999998E-002  -2.3566874469055848E-002 
   3.4297978549334483E-003  -6.4716232122185918E-004    143.4292744023405     
   0.3200000000000000        5.9999999999999998E-002  -2.5705359303525788E-002 
   3.2733590234933162E-003  -4.2904034040774783E-004    145.7668854798089     
   0.3400000000000000        5.9999999999999998E-002  -2.7726042064997021E-002 
   3.0713981554268827E-003  -1.6450939400479870E-004    147.9409749626132     
   0.3600000000000000        5.9999999999999998E-002  -2.9600136388190777E-002 
   2.8248104606101300E-003   1.4529302674293304E-004    149.9399847036023     
   0.3800000000000000        5.9999999999999998E-002  -3.1299643044240759E-002 
   2.5344823549626038E-003   4.9871593675683340E-004    151.7558905317717     
   0.4000000000000000        5.9999999999999998E-002  -3.2797433272069014E-002 
   2.2015665886610659E-003   8.9342614289216469E-004    153.3816764012280     
   0.4200000000000000        5.9999999999999998E-002  -3.4067557470343457E-002 
   1.8278125279737913E-003   1.3263190764157891E-003    154.8103792070498     
   0.4400000000000000        5.9999999999999998E-002  -3.5085693038450980E-002 
   1.4158414845322658E-003   1.7934033655203272E-003    156.0343429709758     
   0.4600000000000000        5.9999999999999998E-002  -3.5829744656463873E-002 
   9.6938471761639068E-004   2.2897216353691538E-003    157.0451424458933     
   0.4800000000000000        5.9999999999999998E-002  -3.6280549667775649E-002 
   4.9345883533577831E-004   2.8092998230616110E-003    157.8337477171744     
   0.5000000000000000        5.9999999999999998E-002  -3.6422657399300409E-002 
  -5.5281244154677195E-006   3.3451434089115839E-003    158.3908557822248     
   0.5200000000000000        5.9999999999999998E-002  -3.6245136474783286E-002 
  -5.1974935044204508E-004   3.8892869602885839E-003    158.7072637373005     
   0.5400000000000000        5.9999999999999998E-002  -3.5742364311987254E-002 
  -1.0400160263972435E-003   4.4329048451259021E-003    158.7742499283081     
   0.5600000000000001        5.9999999999999998E-002  -3.4914750023138312E-002 
  -1.5559210396594257E-003   4.9664864935234192E-003    158.5839470145324     
   0.5800000000000000        5.9999999999999998E-002  -3.3769342298313389E-002 
  -2.0560688186320622E-003   5.4800766880741605E-003    158.1297049258801     
   0.6000000000000000        5.9999999999999998E-002  -3.2320276222605186E-002 
  -2.5283871888320871E-003   5.9635759715983847E-003    157.4064410368391     
   0.6200000000000000        5.9999999999999998E-002  -3.0589016070140355E-002 
  -2.9605116937591789E-003   6.4070935536499297E-003    156.4109803733634     
   0.6400000000000000        5.9999999999999998E-002  -2.8604359511033087E-002 