 VARIABLES="X" "Y" "U<sub>x" "V<sub>y" "Pressure" "Temprature"
 Zone i=           31 ,j=           31 ,k=1,f=point
    0.000000000000000         0.000000000000000         0.000000000000000      
    0.000000000000000         0.000000000000000         100.0000000000000     
   1.2056139809002164E-002    0.000000000000000         0.000000000000000      
  -1.1562675162487667E-007   2.3476259350923397E-005    100.0000000000000     
   2.6268085023483045E-002    0.000000000000000        5.3068769881352664E-008 
  -2.0927445723335772E-008  -1.9985547180379968E-005    100.0000000000000     
   4.2940897124978505E-002    0.000000000000000       -4.5177936947408848E-008 
   2.0825871082447447E-008  -1.8362361341971422E-004    100.0000000000000     
   6.2390619607140818E-002    0.000000000000000         0.000000000000000      
   2.2321424161209134E-007  -4.7756908620357982E-004    100.0000000000000     
   8.4930953210804183E-002    0.000000000000000         0.000000000000000      
    0.000000000000000       -8.8279452084130553E-004    100.0000000000000     
   0.1108546712911252         0.000000000000000         0.000000000000000      
    0.000000000000000       -1.3600892943633174E-003    100.0000000000000     
   0.1404095778625000         0.000000000000000         0.000000000000000      
    0.000000000000000       -1.8443180719386291E-003    100.0000000000000     
   0.1737696490401162         0.000000000000000         0.000000000000000      
    0.000000000000000       -2.2536352399486251E-003    100.0000000000000     
   0.2110031983146076         0.000000000000000         0.000000000000000      
    0.000000000000000       -2.4987345756547954E-003    100.0000000000000     
   0.2520413482970577         0.000000000000000         0.000000000000000      
    0.000000000000000       -2.4925171326248435E-003    100.0000000000000     
   0.2966514798145907         0.000000000000000         0.000000000000000      
    0.000000000000000       -2.1579012784307453E-003    100.0000000000000     
   0.3444211925808097         0.000000000000000         0.000000000000000      
    0.000000000000000       -1.4357714904746674E-003    100.0000000000000     
   0.3947581075177520         0.000000000000000         0.000000000000000      
    0.000000000000000       -2.9961421690373550E-004    100.0000000000000     
   0.4469091710701220         0.000000000000000         0.000000000000000      
    0.000000000000000        1.2351452934371108E-003    100.0000000000000     
   0.5000000000000000         0.000000000000000         0.000000000000000      
    0.000000000000000        3.0773985625233398E-003    100.0000000000000     
   0.5530908289298780         0.000000000000000         0.000000000000000      
    0.000000000000000        5.0426517093776916E-003    100.0000000000000     
   0.6052418924822480         0.000000000000000         0.000000000000000      
    0.000000000000000        6.8811735409785137E-003    100.0000000000000     
   0.6555788074191904         0.000000000000000         0.000000000000000      
    0.000000000000000        8.3495509742482106E-003    100.0000000000000     
   0.7033485201854093         0.000000000000000         0.000000000000000      
    0.000000000000000        9.2919987902387469E-003    100.0000000000000     
   0.7479586517029422         0.000000000000000         0.000000000000000      
    0.000000000000000        9.6837524622752358E-003    100.0000000000000     
   0.7889968016853923         0.000000000000000         0.000000000000000      
    0.000000000000000        9.6170568670546699E-003    100.0000000000000     
   0.8262303509598836         0.000000000000000         0.000000000000000      
    0.000000000000000        9.2453499246456360E-003    100.0000000000000     
   0.8595904221375000         0.000000000000000         0.000000000000000      
    0.000000000000000        8.7272801956407575E-003    100.0000000000000     
   0.8891453287088749         0.000000000000000         0.000000000000000      
    0.000000000000000        8.1917790603233346E-003    100.0000000000000     
   0.9150690467891958         0.000000000000000         0.000000000000000      
    0.000000000000000        7.7245561083751800E-003    100.0000000000000     
   0.9376093803928591         0.000000000000000         0.000000000000000      
    0.000000000000000        7.3735706128684733E-003    100.0000000000000     
   0.9570591028750215         0.000000000000000         0.000000000000000      
    0.000000000000000        7.1512297311712106E-003    100.0000000000000     
   0.9737319149765169         0.000000000000000         0.000000000000000      
    0.000000000000000        7.0550388237893731E-003    100.0000000000000     
   0.9879438601909978         0.000000000000000         0.000000000000000      
    0.000000000000000        7.0259516585171608E-003    100.0000000000000     
    1.000000000000000         0.000000000000000         0.000000000000000      
    0.000000000000000        7.0070331329264955E-003    100.0000000000000     
    0.000000000000000        1.2056139809002164E-002  -1.7689541117958008E-008 
   1.7255979992406905E-008  -2.3338385842745838E-005    100.0000000000000     
   1.2056139809002164E-002   1.2056139809002164E-002   1.4592750882061773E-005 
  -1.4571693940734162E-005  -3.7218457467589244E-007    100.3506086004647     
   2.6268085023483045E-002   1.2056139809002164E-002   5.0212362510929776E-005 
  -1.4440236524995218E-005  -4.1788800679650464E-005    100.7855907777080     
   4.2940897124978505E-002   1.2056139809002164E-002   6.0218034386259206E-005 
   2.9482849904681180E-006  -1.6629537436690703E-004    101.3155870990906     
   6.2390619607140818E-002   1.2056139809002164E-002  -1.0048987586423582E-005 
   3.3019254824918670E-005  -4.0019965670567504E-004    101.9487487135543     
   8.4930953210804183E-002   1.2056139809002164E-002  -2.2299859164917808E-004 
   7.0297217227254788E-005  -7.3836724538478972E-004    102.6904438257354     
   0.1108546712911252        1.2056139809002164E-002  -6.3381414388772055E-004 
   1.0843115002746509E-004  -1.1509416225306116E-003    103.5394843969891     
   0.1404095778625000        1.2056139809002164E-002  -1.2795939163800867E-003 
   1.4166761433747669E-004  -1.5819037949253926E-003    104.4855066039609     
   0.1737696490401162        1.2056139809002164E-002  -2.1668431354471920E-003 
   1.6537511103315069E-004  -1.9559458903640361E-003    105.5089470455646     
   0.2110031983146076        1.2056139809002164E-002  -3.2646078206110892E-003 
   1.7671065645328510E-004  -2.1873528356778178E-003    106.5920775341395     
   0.2520413482970577        1.2056139809002164E-002  -4.5034515532135257E-003 
   1.7444383626610881E-004  -2.1903804523404672E-003    107.7096225141551     
   0.2966514798145907        1.2056139809002164E-002  -5.7797176491475701E-003 
   1.5840782489727186E-004  -1.8877816296722894E-003    108.7828737442609     
   0.3444211925808097        1.2056139809002164E-002  -6.9631576691715951E-003 
   1.2928167579860864E-004  -1.2189893754516368E-003    109.6729166186502     
   0.3947581075177520        1.2056139809002164E-002  -7.9129400957736393E-003 
   8.8252887304065259E-005  -1.5567739654137150E-004    110.2697077923561     
   0.4469091710701220        1.2056139809002164E-002  -8.4904435351268199E-003 
   3.6441907062054488E-005   1.2890321344425661E-003    110.5433192115090     
   0.5000000000000000        1.2056139809002164E-002  -8.5792437514085051E-003 
  -2.2907994832418195E-005   3.0298959824656734E-003    110.5012048129664     
   0.5530908289298780        1.2056139809002164E-002  -8.1271938667001366E-003 
  -8.3000580377048515E-005   4.8939846214437433E-003    110.1612731119146     
   0.6052418924822480        1.2056139809002164E-002  -7.1807323150293789E-003 
  -1.3486621756845192E-004   6.6462624449525809E-003    109.5602407948959     
   0.6555788074191904        1.2056139809002164E-002  -5.8858677181805813E-003 
  -1.7017706910520095E-004   8.0565214775356244E-003    108.7578711447749     
   0.7033485201854093        1.2056139809002164E-002  -4.4481359509624388E-003 
  -1.8428365341793994E-004   8.9759518382500712E-003    107.8256370719426     
   0.7479586517029422        1.2056139809002164E-002  -3.0703112913708680E-003 
  -1.7761205251065436E-004   9.3786250593598016E-003    106.8308110251535     
   0.7889968016853923        1.2056139809002164E-002  -1.8996566022815755E-003 
  -1.5479415199121777E-004   9.3492139014709798E-003    105.8328718051439     
   0.8262303509598836        1.2056139809002164E-002  -1.0076974375342062E-003 
  -1.2213757840053900E-004   9.0311620917956359E-003    104.8792490711334     
   0.8595904221375000        1.2056139809002164E-002  -4.0049808530117205E-004 
  -8.5648816481738750E-005   8.5737546890090662E-003    103.9989428194124     
   0.8891453287088749        1.2056139809002164E-002  -4.1132101130123195E-005 
  -5.0098516138427849E-005   8.0986853052999221E-003    103.2044272254774     
   0.9150690467891958        1.2056139809002164E-002   1.2681599169048931E-004 
  -1.8962802913191123E-005   7.6860730464735219E-003    102.4966653940605     
   0.9376093803928591        1.2056139809002164E-002   1.6537634894040048E-004 
   4.9942510276942046E-006   7.3799782726004020E-003    101.8705539459769     
   0.9570591028750215        1.2056139809002164E-002   1.2951961770772864E-004 
   1.9651213830907844E-005   7.1859887718942195E-003    101.3171959758054     
   0.9737319149765169        1.2056139809002164E-002   7.2291784352570242E-005 
   2.1919787695794724E-005   7.1000137079996377E-003    100.8282915128696     
   0.9879438601909978        1.2056139809002164E-002   1.8950200440367093E-005 
   1.2887882838529253E-005   7.0594148604107678E-003    100.3917069938478     
    1.000000000000000        1.2056139809002164E-002   1.0573976663783927E-005 
   2.1133704218590230E-005   7.1167498118190351E-003    100.0000000000000     
    0.000000000000000        2.6268085023483045E-002   7.9529575246554620E-008 
  -1.1142162952348659E-007   1.8700809577828557E-005    100.0000000000000     
   1.2056139809002164E-002   2.6268085023483045E-002   1.4425483554060664E-005 
  -4.9875776585860091E-005   4.3682592795444852E-005    100.7379642036901     
   2.6268085023483045E-002   2.6268085023483045E-002   3.5123309850183179E-005 
  -3.4471250743289544E-005   4.4456271789904987E-006    101.6570547793199     
   4.2940897124978505E-002   2.6268085023483045E-002  -7.4157127468232502E-006 
   4.7437498604557754E-005  -1.0400463473066813E-004    102.7808417218145     
   6.2390619607140818E-002   2.6268085023483045E-002  -2.0470192043273267E-004 
   1.8209805125477709E-004  -3.0229738009310747E-004    104.1282301747747     
   8.4930953210804183E-002   2.6268085023483045E-002  -6.7094696242901513E-004 
   3.4757791233097472E-004  -5.8974316007472040E-004    105.7102353375137     
   0.1108546712911252        2.6268085023483045E-002  -1.5181198760743772E-003 
   5.1815591539263535E-004  -9.4612941763750128E-004    107.5250044254685     
   0.1404095778625000        2.6268085023483045E-002  -2.8298425279828280E-003 
   6.6836503329101879E-004  -1.3255873950390230E-003    109.5536624356734     
   0.1737696490401162        2.6268085023483045E-002  -4.6329632424458866E-003 
   7.7711784380663093E-004  -1.6617453125157646E-003    111.7518602851321     
   0.2110031983146076        2.6268085023483045E-002  -6.8782667170245188E-003 
   8.3050352321207633E-004  -1.8753673245432963E-003    114.0822663502850     
   0.2520413482970577        2.6268085023483045E-002  -9.4339092893635235E-003 
   8.2184134570418828E-004  -1.8843295519853172E-003    116.5030933220543     
   0.2966514798145907        2.6268085023483045E-002  -1.2091131531441451E-002 
   7.4927951411411970E-004  -1.6126481778901442E-003    118.8668051837991     
   0.3444211925808097        2.6268085023483045E-002  -1.4579960416947849E-002 
   6.1538508217097844E-004  -9.9889250714764607E-004    120.8704192713907     
   0.3947581075177520        2.6268085023483045E-002  -1.6603439278576874E-002 
   4.2564455902749268E-004  -1.2671270806417063E-005    122.2517177685964     
   0.4469091710701220        2.6268085023483045E-002  -1.7869228235987567E-002 
   1.8554241988663934E-004   1.3366125119116023E-003    122.9320845667158     
   0.5000000000000000        2.6268085023483045E-002  -1.8132443896015621E-002 
  -9.0123258889610112E-005   2.9716884058617892E-003    122.9253086147055     
   0.5530908289298780        2.6268085023483045E-002  -1.7278323465230228E-002 
  -3.7084609848351261E-004   4.7322260219893053E-003    122.2664457615028     
   0.6052418924822480        2.6268085023483045E-002  -1.5392168217937170E-002 
  -6.1578043903140836E-004   6.3982180270322972E-003    121.0278951827032     
   0.6555788074191904        2.6268085023483045E-002  -1.2763457755618431E-002 
  -7.8653906879942769E-004   7.7519017616431160E-003    119.3323836072890     
   0.7033485201854093        2.6268085023483045E-002  -9.8079225430778190E-003 
  -8.6079012316026503E-004   8.6502984676952652E-003    117.3334440162045     
   0.7479586517029422        2.6268085023483045E-002  -6.9427020082053290E-003 
  -8.3917430405754112E-004   9.0652325418581984E-003    115.1772268369230     
   0.7889968016853923        2.6268085023483045E-002  -4.4775921803183105E-003 
  -7.4165939673256388E-004   9.0734034498162180E-003    112.9942187641031     
   0.8262303509598836        2.6268085023483045E-002  -2.5696974516408230E-003 
  -5.9657211996984381E-004   8.8079121100508428E-003    110.8931247913731     
   0.8595904221375000        2.6268085023483045E-002  -1.2401293591946681E-003 
  -4.3140793079472545E-004   8.4082642249306873E-003    108.9437912704386     
   0.8891453287088749        2.6268085023483045E-002  -4.1878219041165663E-004 
  -2.6819993049127978E-004   7.9880434337337575E-003    107.1777368923435     
   0.9150690467891958        2.6268085023483045E-002   7.9689754729081297E-006 
  -1.2340561349358871E-004   7.6213130165206271E-003    105.6005389293655     
   0.9376093803928591        2.6268085023483045E-002   1.6496323212737842E-004 
  -9.0513662118308324E-006   7.3475336472032795E-003    104.2017691892473     
   0.9570591028750215        2.6268085023483045E-002   1.6298360482617713E-004 
   6.4286250776191318E-005   7.1707698564341480E-003    102.9625098140537     
   0.9737319149765169        2.6268085023483045E-002   9.8108559752244559E-005 
   8.9919673315733562E-005   7.0925187858102944E-003    101.8641219446822     
   0.9879438601909978        2.6268085023483045E-002   1.8826468985262964E-005 
   6.8414483839408642E-005   7.0603812590250611E-003    100.8805104754450     
    1.000000000000000        2.6268085023483045E-002   1.2666874442125767E-005 
   2.1467004753624902E-005   7.1719215458609098E-003    100.0000000000000     
    0.000000000000000        4.2940897124978505E-002  -1.9487374745735398E-008 
   4.2273469353844141E-008   1.6736894821106524E-004    100.0000000000000     
   1.2056139809002164E-002   4.2940897124978505E-002   4.2028337127617737E-007 
  -6.3547091124317923E-005   1.6311116952376034E-004    101.1740684117420     
   2.6268085023483045E-002   4.2940897124978505E-002  -3.4963440856653901E-005 
   4.0106962172791936E-006   1.1465968036313013E-004    102.6365136927765     
   4.2940897124978505E-002   4.2940897124978505E-002  -1.8837258281622949E-004 
   2.0658581865451935E-004   9.5904152887375278E-006    104.4281286541601     
   6.2390619607140818E-002   4.2940897124978505E-002  -5.7901882441980753E-004 
   5.2549462268414724E-004  -1.6682994024186341E-004    106.5820252267673     
   8.4930953210804183E-002   4.2940897124978505E-002  -1.3594979875241092E-003 
   9.2053930946564750E-004  -4.1729123680063745E-004    109.1175987798618     
   0.1108546712911252        4.2940897124978505E-002  -2.6911253894215822E-003 
   1.3357948324189512E-003  -7.2739070397511883E-004    112.0291605453906     
   0.1404095778625000        4.2940897124978505E-002  -4.7052487225674438E-003 
   1.7103695692138969E-003  -1.0606460956553761E-003    115.2909673985801     
   0.1737696490401162        4.2940897124978505E-002  -7.4582989707531258E-003 
   1.9897362021825214E-003  -1.3604123329719361E-003    118.8366789041542     
   0.2110031983146076        4.2940897124978505E-002  -1.0895145640404974E-002 
   2.1348907129186529E-003  -1.5556170889860362E-003    122.5780126589815     
   0.2520413482970577        4.2940897124978505E-002  -1.4831982997037441E-002 
   2.1239734831966554E-003  -1.5702347244837380E-003    126.4981404276108     
   0.2966514798145907        4.2940897124978505E-002  -1.8958251189888840E-002 
   1.9484039321760408E-003  -1.3306335898123497E-003    130.4026771918011     
   0.3444211925808097        4.2940897124978505E-002  -2.2858367049013246E-002 
   1.6123284635923450E-003  -7.7520561972666392E-004    133.7896280117803     
   0.3947581075177520        4.2940897124978505E-002  -2.6067374595094551E-002 
   1.1291250654526666E-003   1.2798075589101144E-004    136.1794035744173     
   0.4469091710701220        4.2940897124978505E-002  -2.8126453794635776E-002 
   5.1470301751241690E-004   1.3755317350071241E-003    137.4266819724657     
   0.5000000000000000        4.2940897124978505E-002  -2.8651354556714189E-002 
  -1.9311235588973248E-004   2.8997489391056250E-003    137.5543402935607     
   0.5530908289298780        4.2940897124978505E-002  -2.7455458716683940E-002 
  -9.1724310597333556E-004   4.5543662101291370E-003    136.6128659035696     
   0.6052418924822480        4.2940897124978505E-002  -2.4654981518643856E-002 
  -1.5546487710449059E-003   6.1341610598619608E-003    134.7078457376308     
   0.6555788074191904        4.2940897124978505E-002  -2.0677244390253723E-002 
  -2.0072894814667005E-003   7.4327020458328681E-003    132.0256406690246     
   0.7033485201854093        4.2940897124978505E-002  -1.6147649014612457E-002 
  -2.2164968962859986E-003   8.3110286574557980E-003    128.8139652271383     
   0.7479586517029422        4.2940897124978505E-002  -1.1704091084159741E-002 
  -2.1808758178218962E-003   8.7375577535939129E-003    125.3123922787289     
   0.7889968016853923        4.2940897124978505E-002  -7.8305196757892902E-003 
  -1.9487164588615233E-003   8.7806477868442763E-003    121.7279187381808     
   0.8262303509598836        4.2940897124978505E-002  -4.7824664158587623E-003 
  -1.5911697935638565E-003   8.5633145133660552E-003    118.2551768178419     
   0.8595904221375000        4.2940897124978505E-002  -2.6061467318837959E-003 
  -1.1788385122593170E-003   8.2155394076294953E-003    115.0110805263462     
   0.8891453287088749        4.2940897124978505E-002  -1.2045410253457998E-003 
  -7.6929842591243940E-004   7.8428035041047273E-003    112.0627787098264     
   0.9150690467891958        4.2940897124978505E-002  -4.0967307884457637E-004 
  -4.0523547169488486E-004   7.5137188676228971E-003    109.4224645171429     
   0.9376093803928591        4.2940897124978505E-002  -3.7302882616996250E-005 
  -1.1664907227112748E-004   7.2631267896711661E-003    107.0752960337717     
   0.9570591028750215        4.2940897124978505E-002   7.7654998481872431E-005 
   7.5249818645785530E-005   7.0980769773056054E-003    104.9926031845339     
   0.9737319149765169        4.2940897124978505E-002   6.5508558321488065E-005 
   1.6040895308598943E-004   7.0136078485540316E-003    103.1402795192690     
   0.9879438601909978        4.2940897124978505E-002   1.6929113809290639E-005 
   1.3537478358178985E-004   6.9897503023840244E-003    101.4854176355192     
    1.000000000000000        4.2940897124978505E-002    0.000000000000000      
    0.000000000000000        7.0392714151231942E-003    100.0000000000000     
    0.000000000000000        6.2390619607140818E-002    0.000000000000000      
    0.000000000000000        4.2300121956210238E-004    100.0000000000000     
   1.2056139809002164E-002   6.2390619607140818E-002  -2.2970750455612975E-005 
  -1.3619610588962974E-005   3.7420736754361283E-004    101.6710972752238     
   2.6268085023483045E-002   6.2390619607140818E-002  -1.4507253066384161E-004 
   1.7702889640230888E-004   2.9875679980612374E-004    103.7504857655878     
   4.2940897124978505E-002   6.2390619607140818E-002  -4.6115466323327724E-004 
   5.8461042426533299E-004   1.7815561330304647E-004    106.2994547911431     
   6.2390619607140818E-002   6.2390619607140818E-002  -1.1132325485982912E-003 
   1.1889496683871238E-003   3.6984055660967804E-006    109.3691881162302     
   8.4930953210804183E-002   6.2390619607140818E-002  -2.2826435726769159E-003 
   1.9320026538797897E-003  -2.2782083127907227E-004    112.9882247445224     
   0.1108546712911252        6.2390619607140818E-002  -4.1685905490974539E-003 
   2.7220169855766345E-003  -5.0579367500359516E-004    117.1516479574407     
   0.1404095778625000        6.2390619607140818E-002  -6.9433380090021092E-003 
   3.4488359016041454E-003  -8.0163537918720136E-004    121.7951755426089     
   0.1737696490401162        6.2390619607140818E-002  -1.0694480079141651E-002 
   4.0057008204447755E-003  -1.0686451018747114E-003    126.8919340681528     
   0.2110031983146076        6.2390619607140818E-002  -1.5368886211814011E-002 
   4.3092748912444646E-003  -1.2460545047564020E-003    132.2024455358996     
   0.2520413482970577        6.2390619607140818E-002  -2.0741893977230037E-002 
   4.3080274932629972E-003  -1.2654711800184977E-003    137.7700547773999     
   0.2966514798145907        6.2390619607140818E-002  -2.6409331253682864E-002 
   3.9750264214573131E-003  -1.0580650948903631E-003    143.5055881143855     
   0.3444211925808097        6.2390619607140818E-002  -3.1808598177426997E-002 
   3.3125754491930303E-003  -5.6284273124325511E-004    148.6188784172966     
   0.3947581075177520        6.2390619607140818E-002  -3.6299661972348622E-002 
   2.3474136652905102E-003   2.5415978492107232E-004    152.2959792843169     
   0.4469091710701220        6.2390619607140818E-002  -3.9248901726021260E-002 
   1.1124891944360989E-003   1.3961254057451012E-003    154.3084944558645     
   0.5000000000000000        6.2390619607140818E-002  -4.0123319922828311E-002 
  -3.1447749334356540E-004   2.8087650571031212E-003    154.7038561379437     
   0.5530908289298780        6.2390619607140818E-002  -3.8655326126057162E-002 
  -1.7810416964360934E-003   4.3600396772062741E-003    153.5402308998519     
   0.6052418924822480        6.2390619607140818E-002  -3.4982963582902940E-002 
  -3.0825249109541087E-003   5.8591827532887024E-003    150.9527313016758     
   0.6555788074191904        6.2390619607140818E-002  -2.9662169600043014E-002 
  -4.0232119085077582E-003   7.1084442081781980E-003    147.1826811137340     
   0.7033485201854093        6.2390619607140818E-002  -2.3522595621145472E-002 
  -4.4822648755690527E-003   7.9703269910222502E-003    142.5927585181000     
   0.7479586517029422        6.2390619607140818E-002  -1.7424810516936590E-002 
  -4.4515135570798005E-003   8.4075246760850399E-003    137.5358900657914     
   0.7889968016853923        6.2390619607140818E-002  -1.2035467154466864E-002 
  -4.0221376846694456E-003   8.4802536518326019E-003    132.3088337423709     
   0.8262303509598836        6.2390619607140818E-002  -7.7202198012136618E-003 
  -3.3343472707140815E-003   8.3020711258274989E-003    127.1873798079253     
   0.8595904221375000        6.2390619607140818E-002  -4.5619822744349054E-003 
  -2.5300454533153304E-003   7.9943871350867182E-003    122.3883139708832     
   0.8891453287088749        6.2390619607140818E-002  -2.4458735774062906E-003 
  -1.7265756008117074E-003   7.6553481510363511E-003    118.0093932291531     
   0.9150690467891958        6.2390619607140818E-002  -1.1569294292384392E-003 
  -1.0098821103327008E-003   7.3485579265156510E-003    114.0784935879347     
   0.9376093803928591        6.2390619607140818E-002  -4.5698667293568628E-004 
  -4.3736906773883495E-004   7.1057269522031147E-003    110.5773377143367     
   0.9570591028750215        6.2390619607140818E-002  -1.3303895238063988E-004 
  -4.3033776572442588E-005   6.9346697560676296E-003    107.4652604538903     
   0.9737319149765169        6.2390619607140818E-002  -1.8611695523953615E-005 
   1.5876140203814154E-004   6.8302690536776395E-003    104.6945675901281     
   0.9879438601909978        6.2390619607140818E-002   2.3371261922309475E-006 
   1.6848238535090477E-004   6.7805904642349842E-003    102.2193507341656     
    1.000000000000000        6.2390619607140818E-002    0.000000000000000      
    0.000000000000000        6.7738733184274933E-003    100.0000000000000     
    0.000000000000000        8.4930953210804183E-002    0.000000000000000      
    0.000000000000000        7.6485240474274507E-004    100.0000000000000     
   1.2056139809002164E-002   8.4930953210804183E-002  -5.2622232731752793E-005 
   1.4903321903924897E-004   6.6286931149688261E-004    102.2433935424264     
   2.6268085023483045E-002   8.4930953210804183E-002  -2.8264965011252409E-004 
   5.8010382295579021E-004   5.4562505996046974E-004    105.0309006194738     
   4.2940897124978505E-002   8.4930953210804183E-002  -8.0328377478812104E-004 
   1.3170151859703137E-003   3.9296497571266104E-004    108.4485696077250     
   6.2390619607140818E-002   8.4930953210804183E-002  -1.7793932228663634E-003 
   2.3402401199087348E-003   2.0147153996376621E-004    112.5706861047937     
   8.4930953210804183E-002   8.4930953210804183E-002  -3.4165365176052737E-003 
   3.5745881449270787E-003  -3.0364858785202273E-005    117.4400758875094     
   0.1108546712911252        8.4930953210804183E-002  -5.9415945105147803E-003 
   4.8888912550934865E-003  -2.9320277054124420E-004    123.0436067643998     
   0.1404095778625000        8.4930953210804183E-002  -9.5566929606610181E-003 
   6.1133099955895890E-003  -5.6428964450268152E-004    129.3070703695597     
   0.1737696490401162        8.4930953210804183E-002  -1.4372899925953652E-002 
   7.0709748823408556E-003  -8.0601683995737492E-004    136.0118658125818     
   0.2110031983146076        8.4930953210804183E-002  -2.0342330342972351E-002 
   7.6130897309765865E-003  -9.6840758277793324E-004    143.2400100664368     
   0.2520413482970577        8.4930953210804183E-002  -2.7202505892662578E-002 
   7.6378517265972418E-003  -9.9520038368695711E-004    150.2556662155958     
   0.2966514798145907        8.4930953210804183E-002  -3.4473355230665914E-002 
   7.0841841905059074E-003  -8.1974367046914250E-004    158.2427005923951     
   0.3444211925808097        8.4930953210804183E-002  -4.1444711850515084E-002 
   5.9429785682229945E-003  -3.8365780394828401E-004    165.5347878913265     
   0.3947581075177520        8.4930953210804183E-002  -4.7301403117944181E-002 
   4.2573593487286359E-003   3.4425703095160293E-004    170.8781301019984     
   0.4469091710701220        8.4930953210804183E-002  -5.1232660351233923E-002 
   2.0904957000624962E-003   1.3809285556440527E-003    173.8831792185133     
   0.5000000000000000        8.4930953210804183E-002  -5.2548908968102014E-002 
  -4.2382767081624174E-004   2.6850378266824789E-003    174.7061640264132     
   0.5530908289298780        8.4930953210804183E-002  -5.0890713581529398E-002 
  -3.0189580403250423E-003   4.1416028668686882E-003    173.3869759355875     
   0.6052418924822480        8.4930953210804183E-002  -4.6405381194897129E-002 
  -5.3414269831044848E-003   5.5717475177133923E-003    170.0955408580845     
   0.6555788074191904        8.4930953210804183E-002  -3.9763565528619454E-002 
  -7.0494904789124135E-003   6.7835859008949020E-003    165.1304508212859     
   0.7033485201854093        8.4930953210804183E-002  -3.1988919610696755E-002 
  -7.9268191593339036E-003   7.6363195946240452E-003    158.9389823986115     
   0.7479586517029422        8.4930953210804183E-002  -2.4165304690412667E-002 
  -7.9484464831212718E-003   8.0847240018185051E-003    152.1478332399319     
   0.7889968016853923        8.4930953210804183E-002  -1.7148842210280197E-002 
  -7.2654070227358486E-003   8.1797300492863333E-003    144.9767215034287     
   0.8262303509598836        8.4930953210804183E-002  -1.1428537235705473E-002 
  -6.1176572218530198E-003   8.0273010445860056E-003    137.9140476915647     
   0.8595904221375000        8.4930953210804183E-002  -7.1377463767198484E-003 
  -4.7534114091363740E-003   7.7420602284992953E-003    131.2611177644594     
   0.8891453287088749        8.4930953210804183E-002  -4.1565555766969447E-003 
  -3.3798004473493499E-003   7.4167388231795341E-003    125.1694554254721     
   0.9150690467891958        8.4930953210804183E-002  -2.2338628064840541E-003 
  -2.1466739927391118E-003   7.1114322522488867E-003    119.6875019115624     
   0.9376093803928591        8.4930953210804183E-002  -1.0860406446561643E-003 
  -1.1490146370372852E-003   6.8562049835123318E-003    114.7958596921568     
   0.9570591028750215        8.4930953210804183E-002  -4.5805816378344049E-004 
  -4.3600540170562552E-004   6.6599316302383494E-003    110.4421088854154     
   0.9737319149765169        8.4930953210804183E-002  -1.5122372502861031E-004 
  -2.0383333619765153E-005   6.5187830531285304E-003    106.5632688819326     
   0.9879438601909978        8.4930953210804183E-002  -2.6488534888550083E-005 
   1.1302242382938178E-004   6.4254314297391233E-003    103.0996730872435     
    1.000000000000000        8.4930953210804183E-002    0.000000000000000      