 VARIABLES="X" "Y" "U<sub>x" "V<sub>y" "Pressure" "Temprature"
 Zone i=           31 ,j=           31 ,k=1,f=point
    0.000000000000000         0.000000000000000         0.000000000000000      
    0.000000000000000         0.000000000000000         500.0000000000000     
   3.3333333333333333E-002    0.000000000000000         0.000000000000000      
   6.2081678718158731E-007  -4.9666087523784297E-005    500.0000000000000     
   6.6666666666666666E-002    0.000000000000000       -3.1040757817340309E-007 
   1.0425040202238655E-007  -4.6693810249417620E-004    500.0000000000000     
   0.1000000000000000         0.000000000000000       -2.9183053113937797E-006 
   9.7282794390350936E-007  -1.0739588806990524E-003    500.0000000000000     
   0.1333333333333333         0.000000000000000         0.000000000000000      
   2.2374723556292696E-006  -1.6809624399328929E-003    500.0000000000000     
   0.1666666666666667         0.000000000000000         0.000000000000000      
    0.000000000000000       -2.1708684227083304E-003    500.0000000000000     
   0.2000000000000000         0.000000000000000         0.000000000000000      
    0.000000000000000       -2.4860025004303185E-003    500.0000000000000     
   0.2333333333333333         0.000000000000000         0.000000000000000      
    0.000000000000000       -2.5881612605730942E-003    500.0000000000000     
   0.2666666666666667         0.000000000000000         0.000000000000000      
    0.000000000000000       -2.4619166607890001E-003    500.0000000000000     
   0.3000000000000000         0.000000000000000         0.000000000000000      
    0.000000000000000       -2.1082896106119661E-003    500.0000000000000     
   0.3333333333333333         0.000000000000000         0.000000000000000      
    0.000000000000000       -1.5406100445823833E-003    500.0000000000000     
   0.3666666666666666         0.000000000000000         0.000000000000000      
    0.000000000000000       -7.8176648378811453E-004    500.0000000000000     
   0.4000000000000000         0.000000000000000         0.000000000000000      
    0.000000000000000        1.3801210870435039E-004    500.0000000000000     
   0.4333333333333334         0.000000000000000         0.000000000000000      
    0.000000000000000        1.1830040932681173E-003    500.0000000000000     
   0.4666666666666667         0.000000000000000         0.000000000000000      
    0.000000000000000        2.3135833571391565E-003    500.0000000000000     
   0.5000000000000000         0.000000000000000         0.000000000000000      
    0.000000000000000        3.4876164243167218E-003    500.0000000000000     
   0.5333333333333333         0.000000000000000         0.000000000000000      
    0.000000000000000        4.6617365726099808E-003    500.0000000000000     
   0.5666666666666667         0.000000000000000         0.000000000000000      
    0.000000000000000        5.7925569209570102E-003    500.0000000000000     
   0.6000000000000000         0.000000000000000         0.000000000000000      
    0.000000000000000        6.8378863960961277E-003    500.0000000000000     
   0.6333333333333333         0.000000000000000         0.000000000000000      
    0.000000000000000        7.7580108793961844E-003    500.0000000000000     
   0.6666666666666666         0.000000000000000         0.000000000000000      
    0.000000000000000        8.5171046645953000E-003    500.0000000000000     
   0.7000000000000000         0.000000000000000         0.000000000000000      
    0.000000000000000        9.0848310977795447E-003    500.0000000000000     
   0.7333333333333333         0.000000000000000         0.000000000000000      
    0.000000000000000        9.4382244624356838E-003    500.0000000000000     
   0.7666666666666667         0.000000000000000         0.000000000000000      
    0.000000000000000        9.5639017832768007E-003    500.0000000000000     
   0.8000000000000000         0.000000000000000         0.000000000000000      
    0.000000000000000        9.4609270322305716E-003    500.0000000000000     
   0.8333333333333334         0.000000000000000         0.000000000000000      
    0.000000000000000        9.1441937324494155E-003    500.0000000000000     
   0.8666666666666667         0.000000000000000         0.000000000000000      
    0.000000000000000        8.6502983534293577E-003    500.0000000000000     
   0.9000000000000000         0.000000000000000         0.000000000000000      
    0.000000000000000        8.0436072676004569E-003    500.0000000000000     
   0.9333333333333334         0.000000000000000         0.000000000000000      
    0.000000000000000        7.4371764565897653E-003    500.0000000000000     
   0.9666666666666667         0.000000000000000         0.000000000000000      
    0.000000000000000        6.9906908802760083E-003    500.0000000000000     
    1.000000000000000         0.000000000000000         0.000000000000000      
    0.000000000000000        6.8919020394350534E-003    500.0000000000000     
    0.000000000000000        3.3333333333333333E-002   1.0346987641334350E-007 
  -1.0114217310592442E-007   4.9294019876187352E-005    100.0000000000000     
   3.3333333333333333E-002   3.3333333333333333E-002   4.2406241818304760E-005 
  -4.2091476996966848E-005   1.4019426118900253E-006    335.7198063723822     
   6.6666666666666666E-002   3.3333333333333333E-002  -1.9308445322525460E-004 
   1.6937712389185171E-004  -2.6614435271228208E-004    398.9018774578458     
   0.1000000000000000        3.3333333333333333E-002  -9.8078379054245511E-004 
   4.2631756019618187E-004  -6.2804864837149785E-004    430.8546602678360     
   0.1333333333333333        3.3333333333333333E-002  -2.3198726888842532E-003 
   6.5502323358630884E-004  -1.0031327376993798E-003    447.5970431051299     
   0.1666666666666667        3.3333333333333333E-002  -4.1285928136858101E-003 
   8.3523813221950962E-004  -1.3127791040968551E-003    456.0906895257998     
   0.2000000000000000        3.3333333333333333E-002  -6.2825621483679813E-003 
   9.5590290155157689E-004  -1.5028905321360880E-003    459.1346902055800     
   0.2333333333333333        3.3333333333333333E-002  -8.6462034342993897E-003 
   1.0172395248026235E-003  -1.5400269269262585E-003    458.7573190029260     
   0.2666666666666667        3.3333333333333333E-002  -1.1084695247777077E-002 
   1.0221662452553073E-003  -1.4069815415316789E-003    456.2018664078753     
   0.3000000000000000        3.3333333333333333E-002  -1.3471361266361096E-002 
   9.7568346041454240E-004  -1.0999914089971062E-003    452.4802520043762     
   0.3333333333333333        3.3333333333333333E-002  -1.5691978049866832E-002 
   8.8395399152911189E-004  -6.2613312271980954E-004    448.2321421334827     
   0.3666666666666666        3.3333333333333333E-002  -1.7647409639101021E-002 
   7.5389913184781558E-004  -1.1850824815890481E-006    443.8753903836800     
   0.4000000000000000        3.3333333333333333E-002  -1.9255234282309887E-002 
   5.9287688182914529E-004   7.5225952563529855E-004    439.6624010467173     
   0.4333333333333334        3.3333333333333333E-002  -2.0450697712601433E-002 
   4.0848947080196875E-004   1.6064076221310435E-003    435.7301628730522     
   0.4666666666666667        3.3333333333333333E-002  -2.1187247170742350E-002 
   2.0845886287098513E-004   2.5297178773790682E-003    432.1541219175743     
   0.5000000000000000        3.3333333333333333E-002  -2.1436800988145602E-002 
   5.6009206407274155E-007   3.4882154987278323E-003    428.9693660785532     
   0.5333333333333333        3.3333333333333333E-002  -2.1189874109373778E-002 
  -2.0741017193674693E-004   4.4467249678786036E-003    426.1903487099249     
   0.5666666666666667        3.3333333333333333E-002  -2.0455625694644750E-002 
  -4.0764644014871024E-004   5.3700597352151300E-003    423.8198545681937     
   0.6000000000000000        3.3333333333333333E-002  -1.9261850965086931E-002 
  -5.9234800239490884E-004   6.2242149794151710E-003    421.8510220525495     
   0.6333333333333333        3.3333333333333333E-002  -1.7654894625798091E-002 
  -7.5375208538012008E-004   6.9776032227058414E-003    420.2653768274614     
   0.6666666666666666        3.3333333333333333E-002  -1.5699405667885080E-002 
  -8.8420523885166349E-004   7.6023841520031776E-003    419.0259562946696     
   0.7000000000000000        3.3333333333333333E-002  -1.3477838163823511E-002 
  -9.7629161677625833E-004   8.0759083410753673E-003    418.0649185450381     
   0.7333333333333333        3.3333333333333333E-002  -1.1089455068953532E-002 
  -1.0230417083580926E-003   8.3823921569822889E-003    417.2640149391086     
   0.7666666666666667        3.3333333333333333E-002  -8.6487955982952197E-003 
  -1.0182487105969474E-003   8.5146740217269274E-003    416.4125665569321     
   0.8000000000000000        3.3333333333333333E-002  -6.2826424611794581E-003 
  -9.5699112066597355E-004   8.4767215257940363E-003    415.1444159913336     
   0.8333333333333334        3.3333333333333333E-002  -4.1265444336627049E-003 
  -8.3642894689944412E-004   8.2852271007386510E-003    412.7683945662774     
   0.8666666666666667        3.3333333333333333E-002  -2.3147084118640246E-003 
  -6.5764215292892869E-004   7.9753792138186064E-003    407.9554493262597     
   0.9000000000000000        3.3333333333333333E-002  -9.7435986522883828E-004 
  -4.2851476280906918E-004   7.5959467097629100E-003    397.9085894624080     
   0.9333333333333334        3.3333333333333333E-002  -1.7732856600967466E-004 
  -1.7495274552365464E-004   7.2340710810054679E-003    375.5765449744915     
   0.9666666666666667        3.3333333333333333E-002   5.2959848137036140E-005 
   3.5776975152245537E-005   6.9434833534822707E-003    323.8294488823861     
    1.000000000000000        3.3333333333333333E-002   2.8922069570585809E-005 
   5.7638453589278807E-005   6.9190664700443261E-003    100.0000000000000     
    0.000000000000000        6.6666666666666666E-002   5.3521558125993860E-008 
   1.5303753234610917E-007   4.6719355259546247E-004    100.0000000000000     
   3.3333333333333333E-002   6.6666666666666666E-002  -1.6446466430617568E-004 
   1.9085933936248669E-004   2.6931543659130933E-004    225.9390084022813     
   6.6666666666666666E-002   6.6666666666666666E-002  -1.0511104666621109E-003 
   1.0585116865063833E-003  -3.8846266692998422E-006    321.5015969072733     
   0.1000000000000000        6.6666666666666666E-002  -2.8076695341234747E-003 
   2.0950548197309774E-003  -3.5518136469627994E-004    372.6804365272344     
   0.1333333333333333        6.6666666666666666E-002  -5.4511651785103758E-003 
   3.0401323144096234E-003  -6.8751522482820985E-004    402.0525912489773     
   0.1666666666666667        6.6666666666666666E-002  -8.8456153377808201E-003 
   3.7893574760312233E-003  -9.5447571371932766E-004    416.3145084464090     
   0.2000000000000000        6.6666666666666666E-002  -1.2800290983914558E-002 
   4.2980430987271607E-003  -1.1105859429178418E-003    421.2868393334437     
   0.2333333333333333        6.6666666666666666E-002  -1.7092720931613438E-002 
   4.5556931737755092E-003  -1.1296361453718711E-003    419.4142253311333     
   0.2666666666666667        6.6666666666666666E-002  -2.1496591591497770E-002 
   4.5697856094348037E-003  -9.9643509426441696E-004    413.7454900499327     
   0.3000000000000000        6.6666666666666666E-002  -2.5794314691436268E-002 
   4.3589279705214404E-003  -7.0783963167184833E-004    405.9247264723622     
   0.3333333333333333        6.6666666666666666E-002  -2.9787037458872994E-002 
   3.9483629671559790E-003  -2.6984408753086807E-004    397.2136213239927     
   0.3666666666666666        6.6666666666666666E-002  -3.3300332640677534E-002 
   3.3675824692408233E-003   3.0369158044234889E-004    388.4120881330630     
   0.4000000000000000        6.6666666666666666E-002  -3.6188132630052751E-002 
   2.6486515419290222E-003   9.9274549665903525E-004    379.9383523095821     
   0.4333333333333334        6.6666666666666666E-002  -3.8335066137543283E-002 
   1.8251561730336504E-003   1.7724851660480606E-003    372.0694452937333     
   0.4666666666666667        6.6666666666666666E-002  -3.9657889455802245E-002 
   9.3151148580267293E-004   2.6145894518338018E-003    364.9354006354290     
   0.5000000000000000        6.6666666666666666E-002  -4.0106270012005944E-002 
   2.5510999063490300E-006   3.4884507092919599E-003    358.5948634677042     
   0.5333333333333333        6.6666666666666666E-002  -3.9663185766618272E-002 
  -9.2670861697052322E-004   4.3623287813502462E-003    353.0741819823767     
   0.5666666666666667        6.6666666666666666E-002  -3.8345065331167050E-002 
  -1.8212153223396339E-003   5.2044711087937201E-003    348.3793809211174     
   0.6000000000000000        6.6666666666666666E-002  -3.6201717890458042E-002 
  -2.6460300024515448E-003   5.9842357822263567E-003    344.5007039619281     
   0.6333333333333333        6.6666666666666666E-002  -3.3316000118313482E-002 
  -3.3665714665016663E-003   6.6732493226841164E-003    341.4096096107067     
   0.6666666666666666        6.6666666666666666E-002  -2.9803081509663411E-002 
  -3.9490421086492058E-003   7.2466233180081812E-003    339.0483751144909     
   0.7000000000000000        6.6666666666666666E-002  -2.5809058559615062E-002 
  -4.3611469643768637E-003   7.6842723782897682E-003    337.3045507410393     
   0.7333333333333333        6.6666666666666666E-002  -2.1508589559090626E-002 
  -4.5731778275494269E-003   7.9723194281390523E-003    335.9722359409370     
   0.7666666666666667        6.6666666666666666E-002  -1.7101023535517634E-002 
  -4.5597620920467602E-003   8.1046882714528728E-003    334.7046282337493     
   0.8000000000000000        6.6666666666666666E-002  -1.2804374529018163E-002 
  -4.3022687786886281E-003   8.0847099883831867E-003    332.8578612419452     
   0.8333333333333334        6.6666666666666666E-002  -8.8460009886006333E-003 
  -3.7935399634484862E-003   7.9270589661098560E-003    329.3441286428363     
   0.8666666666666667        6.6666666666666666E-002  -5.4478795575180101E-003 
  -3.0439570418434804E-003   7.6593700911144107E-003    322.0182043478014     
   0.9000000000000000        6.6666666666666666E-002  -2.8049268544007274E-003 
  -2.1000633250648536E-003   7.3235764968934613E-003    306.6974345653626     
   0.9333333333333334        6.6666666666666666E-002  -1.0434094274588638E-003 
  -1.0649501059004282E-003   6.9784944472584638E-003    275.1438875608646     
   0.9666666666666667        6.6666666666666666E-002  -1.8157491991405668E-004 
  -1.9281261014175878E-004   6.6873474948107737E-003    202.5791005054375     
    1.000000000000000        6.6666666666666666E-002   2.9115087612996629E-005 
   5.7917618462716222E-005   6.5564436986019978E-003    100.0000000000000     
    0.000000000000000        0.1000000000000000       -9.7341977079686298E-007 
   2.9198009617741237E-006   1.0917202450091840E-003    100.0000000000000     
   3.3333333333333333E-002   0.1000000000000000       -4.2283430265062090E-004 
   9.7353290256800530E-004   6.4180551334935647E-004    193.0028459902071     
   6.6666666666666666E-002   0.1000000000000000       -2.1125566051800894E-003 
   2.8231221822513442E-003   3.3814270062034764E-004    272.2147778836891     
   0.1000000000000000        0.1000000000000000       -4.9335485219106591E-003 
   4.8855823478920193E-003  -2.8122701577087979E-005    329.9426779046964     
   0.1333333333333333        0.1000000000000000       -8.8814964922830086E-003 
   6.7594346731625083E-003  -3.3113522130898354E-004    364.9722415810319     
   0.1666666666666667        0.1000000000000000       -1.3753375309905348E-002 
   8.2490535006024320E-003  -5.6744874440978806E-004    382.5768777885156     
   0.2000000000000000        0.1000000000000000       -1.9311448650336963E-002 
   9.2589147704538917E-003  -6.9580534464345535E-004    385.5734186518848     
   0.2333333333333333        0.1000000000000000       -2.5270054650017786E-002 
   9.7598213482131321E-003  -7.0059823375997761E-004    381.8320879343023     
   0.2666666666666667        0.1000000000000000       -3.1338768284754674E-002 
   9.7603878729836460E-003  -5.6940864953953596E-004    372.4251751566232     
   0.3000000000000000        0.1000000000000000       -3.7234321580613135E-002 
   9.2942613754037964E-003  -3.0076956881385436E-004    360.3735285133319     
   0.3333333333333333        0.1000000000000000       -4.2695884408784295E-002 
   8.4108841116795566E-003   9.9891203362268739E-005    347.6796719503711     
   0.3666666666666666        0.1000000000000000       -4.7492975187568877E-002 
   7.1700230560969771E-003   6.2025899009325103E-004    334.8197885172704     
   0.4000000000000000        0.1000000000000000       -5.1431636295612398E-002 
   5.6379225774192731E-003   1.2427270263912630E-003    322.6079290311922     
   0.4333333333333334        0.1000000000000000       -5.4358073328038749E-002 
   3.8847773985908945E-003   1.9453961957112771E-003    311.4026009898214     
   0.4666666666666667        0.1000000000000000       -5.6161009806371370E-002 
   1.9830452155982902E-003   2.7032451964084069E-003    301.3355226980448     
   0.5000000000000000        0.1000000000000000       -5.6773006304558005E-002 
   6.3880171363419031E-006   3.4891804657205365E-003    292.4663819189758     
   0.5333333333333333        0.1000000000000000       -5.6171160245066493E-002 
  -1.9709874109765753E-003   4.2750820652308211E-003    284.8026839176819     
   0.5666666666666667        0.1000000000000000       -5.4377351797008429E-002 
  -3.8747893542131753E-003   5.0328232221430753E-003    278.3322798065586     
   0.6000000000000000        0.1000000000000000       -5.1458113829079624E-002 
  -5.6311074200997733E-003   5.7352919976759835E-003    273.0242591979242     
   0.6333333333333333        0.1000000000000000       -4.7524040278880630E-002 
  -7.1670925201295721E-003   6.3574400021884697E-003    268.8278459472776     
   0.6666666666666666        0.1000000000000000       -4.2728552834258471E-002 
  -8.4120520931036304E-003   6.8773420677299170E-003    265.6704940484502     
   0.7000000000000000        0.1000000000000000       -3.7265611431503358E-002 
  -9.2991955984556094E-003   7.2773651761565191E-003    263.4379139277091     
   0.7333333333333333        0.1000000000000000       -3.1366074212027341E-002 
  -9.7682365377526840E-003   7.5451991272313919E-003    261.8934815517903     
   0.7666666666666667        0.1000000000000000       -2.5291537675372618E-002 
  -9.7693488896469192E-003   7.6753963916020088E-003    260.5962233937324     
   0.8000000000000000        0.1000000000000000       -1.9326232081669961E-002 
  -9.2687099363601838E-003   7.6695490665727884E-003    258.9404068844280     
   0.8333333333333334        0.1000000000000000       -1.3761963863383695E-002 
  -8.2578722065527865E-003   7.5399321820285503E-003    255.5294183041245     
   0.8666666666666667        0.1000000000000000       -8.8852609668073259E-003 
  -6.7663203704139809E-003   7.3029248255146234E-003    248.5562529147130     
   0.9000000000000000        0.1000000000000000       -4.9361424750694284E-003 
  -4.8902337467028401E-003   6.9983629950560594E-003    233.9604514060012     
   0.9333333333333334        0.1000000000000000       -2.1168355346875261E-003 
  -2.8226439479799876E-003   6.6345141850340256E-003    205.2092507863253     
   0.9666666666666667        0.1000000000000000       -4.3721851587979457E-004 
  -9.6587731785158356E-004   6.3286904962889324E-003    159.4499561226967     
    1.000000000000000        0.1000000000000000         0.000000000000000      
    0.000000000000000        5.9064631956645556E-003    100.0000000000000     
    0.000000000000000        0.1333333333333333         0.000000000000000      
    0.000000000000000        1.7565219504465806E-003    100.0000000000000     
   3.3333333333333333E-002   0.1333333333333333       -6.7383904293754162E-004 
   2.3400832417447945E-003   1.0484150811226856E-003    176.3961543004604     
   6.6666666666666666E-002   0.1333333333333333       -3.1777762083948714E-003 
   5.5504347369229653E-003   6.7079212248254605E-004    245.7111041317222     
   0.1000000000000000        0.1333333333333333       -7.0850271076929108E-003 
   8.8994931844334178E-003   2.3511388648732106E-004    300.4395043696644     
   0.1333333333333333        0.1333333333333333       -1.2333128561402657E-002 
   1.1891243684721041E-002  -8.9879182058215601E-005    336.5294590399965     
   0.1666666666666667        0.1333333333333333       -1.8631690355840228E-002 
   1.4251333175983516E-002  -3.3583024858233274E-004    353.6088112939818     
   0.2000000000000000        0.1333333333333333       -2.5691605861367612E-002 
   1.5835680354056116E-002  -4.6431004627954438E-004    356.0778630779317     
   0.2333333333333333        0.1333333333333333       -3.3171468175240866E-002 
   1.6593547856701297E-002  -4.6966384799204778E-004    347.1519867600773     
   0.2666666666666667        0.1333333333333333       -4.0729374189803179E-002 
   1.6534271600399789E-002  -3.4304930471103397E-004    331.9132843081677     
   0.3000000000000000        0.1333333333333333       -4.8031463925579693E-002 
   1.5708550782258711E-002  -8.5976480933198883E-005    318.3769243002147     
   0.3333333333333333        0.1333333333333333       -5.4770137708967909E-002 
   1.4194605953374261E-002   2.9514438194939605E-004    302.0672147017380     
   0.3666666666666666        0.1333333333333333       -6.0673002714616550E-002 
   1.2089046121770608E-002   7.8793194330372773E-004    285.7244427713001     
   0.4000000000000000        0.1333333333333333       -6.5510502917456928E-002 
   9.5003144003522264E-003   1.3755810658977084E-003    270.5504344266440     
   0.4333333333333334        0.1333333333333333       -6.9100391181731349E-002 
   6.5442054732052137E-003   2.0375431451956343E-003    256.8123064591235     
   0.4666666666666667        0.1333333333333333       -7.1310694150205120E-002 
   3.3408227107361230E-003   2.7505503319257070E-003    244.7210711299717     
   0.5000000000000000        0.1333333333333333       -7.2061368288603475E-002 
   1.2610576055996891E-005   3.4895066456425432E-003    234.2701300636141     
   0.5333333333333333        0.1333333333333333       -7.1325183366266240E-002 
  -3.3169149257903725E-003   4.2284108499379544E-003    225.4258083166450     
   0.5666666666666667        0.1333333333333333       -6.9128029625770943E-002 
  -6.5240878637763599E-003   4.9412569398053540E-003    218.1133404482739     
   0.6000000000000000        0.1333333333333333       -6.5548752468552920E-002 
  -9.4860249485999911E-003   5.6029361018794964E-003    212.2402695826403     
   0.6333333333333333        0.1333333333333333       -6.0718402012323015E-002 
  -1.2081929899232050E-002   6.1901621815684121E-003    207.6992670446179     
   0.6666666666666666        0.1333333333333333       -5.4818688374210355E-002 
  -1.4195123324065480E-002   6.6823692453948967E-003    204.3537676075812     
   0.7000000000000000        0.1333333333333333       -4.8079098721928615E-002 
  -1.5716181416213199E-002   7.0627383055292710E-003    202.0841908308591     
   0.7333333333333333        0.1333333333333333       -4.0772451792958159E-002 
  -1.6547543061620828E-002   7.3188923113643792E-003    200.7865077045598     
   0.7666666666666667        0.1333333333333333       -3.3207257115620448E-002 
  -1.6610222695122773E-002   7.4444297479696392E-003    199.9930440552058     
   0.8000000000000000        0.1333333333333333       -2.5718650456839430E-002 
  -1.5853065242945406E-002   7.4379039090555271E-003    198.7343500053875     
   0.8333333333333334        0.1333333333333333       -1.8650092731619772E-002 
  -1.4266750476501229E-002   7.3081787328575292E-003    197.0007978753057     
   0.8666666666666667        0.1333333333333333       -1.2344467998071616E-002 
  -1.1902298070872870E-002   7.0611239806572896E-003    191.9060950090157     
   0.9000000000000000        0.1333333333333333       -7.0922928709150033E-003 
  -8.9045685514796743E-003   6.7351617882071661E-003    181.4319535910648     
   0.9333333333333334        0.1333333333333333       -3.1837257595922872E-003 
  -5.5479799950270952E-003   6.2993205888010675E-003    162.8769893523709     
   0.9666666666666667        0.1333333333333333       -6.7789443615266147E-004 
  -2.3335866389280805E-003   5.9213171338837987E-003    134.9151995424891     
    1.000000000000000        0.1333333333333333         0.000000000000000      
    0.000000000000000        5.2110837254941153E-003    100.0000000000000     
    0.000000000000000        0.1666666666666667         0.000000000000000      
    0.000000000000000        2.3718983011085980E-003    100.0000000000000     
   3.3333333333333333E-002   0.1666666666666667       -9.0872487176187912E-004 
   4.2734768251506882E-003   1.4187422160113405E-003    166.8756816718292     
   6.6666666666666666E-002   0.1666666666666667       -4.1987312905415871E-003 
   9.2265527757265636E-003   9.5597976451975743E-004    229.1344685439648     
   0.1000000000000000        0.1666666666666667       -9.1780502478278816E-003 
   1.4108218266311520E-002   4.3617116170020066E-004    279.8721688200731     
   0.1333333333333333        0.1666666666666667       -1.5711681713355814E-002 
   1.8371159517222006E-002   7.2209721044884010E-005    313.3774716430270     
   0.1666666666666667        0.1666666666666667       -2.3408035435055395E-002 
   2.1687243379437404E-002  -1.9792941918612283E-004    327.7802101859225     
   0.2000000000000000        0.1666666666666667       -3.1917131189450776E-002 
   2.3875388325532050E-002  -3.3659622072075904E-004    325.2499787706432     
   0.2333333333333333        0.1666666666666667       -4.0840051134938535E-002 
   2.4869239420450110E-002  -3.4723057892365296E-004    312.0821766250442     
   0.2666666666666667        0.1666666666666667       -4.9787416183062545E-002 
   2.4682537093680762E-002  -2.2449637887699700E-004    291.3982164651896     
   0.3000000000000000        0.1666666666666667       -5.8382347080129446E-002 
   2.3386811776248635E-002   2.6754426872330047E-005    276.1225402615041     
   0.3333333333333333        0.1666666666666667       -6.6279856783356170E-002 
   2.1093565005015837E-002   3.9852873496948831E-004    256.8068669712761     
   0.3666666666666666        0.1666666666666667       -7.3175426244938321E-002 
   1.7941583929821953E-002   8.7766151387898197E-004    239.2781844929098     
   0.4000000000000000        0.1666666666666667       -7.8813080568660890E-002 
   1.4087506117104187E-002   1.4473923045077856E-003    223.0675871609935     
   0.4333333333333334        0.1666666666666667       -8.2989949376185451E-002 
   9.6991628946952336E-003   2.0877609992381160E-003    209.1757570137573     
   0.4666666666666667        0.1666666666666667       -8.5559315191044580E-002 
   4.9509949526307748E-003   2.7765030426912573E-003    197.3899265129811     
   0.5000000000000000        0.1666666666666667       -8.6432247180104421E-002 
   2.1049984069557779E-005   3.4897837115488058E-003    187.6277811704943     
   0.5333333333333333        0.1666666666666667       -8.5578457850303019E-002 
  -4.9109703248239487E-003   4.2029930477631774E-003    179.6692541034315     
   0.5666666666666667        0.1666666666666667       -8.3026598141974245E-002 
  -9.6651372262632918E-003   4.8915183912233429E-003    173.3127327330724     
   0.6000000000000000        0.1666666666666667       -7.8864119134222047E-002 
  -1.4062737150332936E-002   5.5315179353799667E-003    168.3569435882872     
   0.6333333333333333        0.1666666666666667       -7.3236565574782947E-002 
  -1.7928273396295477E-002   6.1007171890877484E-003    164.5965025040434     
   0.6666666666666666        0.1666666666666667       -6.6346074195165999E-002 
  -2.1092557210398870E-002   6.5791476545061910E-003    161.8585402811034     
   0.7000000000000000        0.1666666666666667       -5.8448430157194926E-002 
  -2.3397428466266319E-002   6.9500435420549039E-003    159.8334522587649     
   0.7333333333333333        0.1666666666666667       -4.9848556185202904E-002 
  -2.4702595144456288E-002   7.2002475313252693E-003    158.4859495644770     
   0.7666666666666667        0.1666666666666667       -4.0892435060519955E-002 
  -2.4895292049236115E-002   7.3217803546938715E-003    158.4152128390132     
   0.8000000000000000        0.1666666666666667       -3.1958414491419278E-002 
  -2.3903182783995069E-002   7.3098373176457036E-003    158.1971301448083     
   0.8333333333333334        0.1666666666666667       -2.3437661605119765E-002 
  -2.1712390560726418E-002   7.1697972108001910E-003    156.6411721820903     
   0.8666666666666667        0.1666666666666667       -1.5730809904043245E-002 
  -1.8389826238844633E-002   6.8983332787073935E-003    153.5014301538481     
   0.9000000000000000        0.1666666666666667       -9.1890994400245507E-003 
  -1.4118038269261987E-002   6.5331526118796489E-003    147.2333569255695     
   0.9333333333333334        0.1666666666666667       -4.2041284757734915E-003 
  -9.2275628178093531E-003   6.0122806011524491E-003    136.4010926860911     
   0.9666666666666667        0.1666666666666667       -9.0984551563958556E-004 
  -4.2705122612981296E-003   5.5487556758669343E-003    120.2702326381435     
    1.000000000000000        0.1666666666666667         0.000000000000000      