 VARIABLES="X" "Y" "U<sub>x" "V<sub>y" "Pressure" "Temprature"
 Zone i=           11 ,j=           11 ,k=1,f=point
    0.000000000000000         0.000000000000000         0.000000000000000      
    0.000000000000000         0.000000000000000         100.0000000000000     
   4.3344834415963651E-002    0.000000000000000         0.000000000000000      
   4.8567853478107606E-006  -2.3208340852638620E-004    100.0000000000000     
   0.1116082371158103         0.000000000000000       -1.8855628614366379E-006 
   9.8886075739806358E-007  -1.5053103387123214E-003    100.0000000000000     
   0.2118741396525440         0.000000000000000       -1.2220801813323119E-005 
   9.4524117094637915E-006  -2.9079973818792039E-003    100.0000000000000     
   0.3450210741951267         0.000000000000000         0.000000000000000      
   2.4291317411658902E-005  -1.5618413368912406E-003    100.0000000000000     
   0.5000000000000000         0.000000000000000         0.000000000000000      
    0.000000000000000        3.6236916298594893E-003    100.0000000000000     
   0.6549789258048733         0.000000000000000         0.000000000000000      
    0.000000000000000        1.0910151168583309E-002    100.0000000000000     
   0.7881258603474559         0.000000000000000         0.000000000000000      
    0.000000000000000        1.2383312925665933E-002    100.0000000000000     
   0.8883917628841898         0.000000000000000         0.000000000000000      
    0.000000000000000        1.0685168163245823E-002    100.0000000000000     
   0.9566551655840363         0.000000000000000         0.000000000000000      
    0.000000000000000        9.4750363148426563E-003    100.0000000000000     
    1.000000000000000         0.000000000000000         0.000000000000000      
    0.000000000000000        9.2800843545169757E-003    100.0000000000000     
    0.000000000000000        4.3344834415963651E-002   6.2873032212166537E-007 
  -6.1055866855670851E-007   2.1096326409504379E-004    100.0000000000000     
   4.3344834415963651E-002   4.3344834415963651E-002  -1.9131104537658329E-004 
   1.5841205108959756E-004  -1.0379190628521550E-005    103.0174836691356     
   0.1116082371158103        4.3344834415963651E-002  -2.8415423694295094E-003 
   1.4282260760753475E-003  -7.1135011624233555E-004    117.1037963298575     
   0.2118741396525440        4.3344834415963651E-002  -1.2602184051217904E-002 
   2.3039466308588689E-003  -1.8924261279596284E-003    131.7098593154235     
   0.3450210741951267        4.3344834415963651E-002  -2.7417090222505984E-002 
   1.8396392723907021E-003  -7.3798292702753968E-004    155.7400577941674     
   0.5000000000000000        4.3344834415963651E-002  -3.5368106038536525E-002 
  -2.3003893788835363E-004   3.3590056167372181E-003    163.1913876617053     
   0.6549789258048733        4.3344834415963651E-002  -2.4932403576090612E-002 
  -2.3469846368378814E-003   9.9149701076486265E-003    142.5755659080775     
   0.7881258603474559        4.3344834415963651E-002  -8.2945164027996426E-003 
  -2.3493546135156650E-003   1.1306159203962753E-002    120.1044999049087     
   0.8883917628841898        4.3344834415963651E-002  -1.0171770399528247E-003 
  -9.3185304643313214E-004   1.0084447399066604E-002    108.6145584235798     
   0.9566551655840363        4.3344834415963651E-002   1.2741913214637691E-004 
   5.2844528406575559E-006   9.2444743013571969E-003    102.6968978434909     
    1.000000000000000        4.3344834415963651E-002   5.0808631052997732E-005 
   1.0109256733484936E-004   9.2610815746595691E-003    100.0000000000000     
    0.000000000000000        0.1116082371158103       -1.7602822950416208E-006 
   2.4371037770658936E-006   1.3001269430969126E-003    100.0000000000000     
   4.3344834415963651E-002   0.1116082371158103       -1.2575766811816764E-003 
   2.7816701262019048E-003   6.7721351222454801E-004    112.3267206227071     
   0.1116082371158103        0.1116082371158103       -8.6519954273225393E-003 
   8.7224051531065716E-003  -7.9275653583732697E-005    123.2908713420259     
   0.2118741396525440        0.1116082371158103       -2.9265615674152069E-002 
   1.4319793777890858E-002  -9.0468198771757348E-004    199.0933933522364     
   0.3450210741951267        0.1116082371158103       -6.0934524834263648E-002 
   1.0983062201857099E-002  -2.6035201936700555E-004    215.5118897185824     
   0.5000000000000000        0.1116082371158103       -8.0058086071030557E-002 
  -3.3901408698015420E-004   2.9735379327479293E-003    266.0690782060036     
   0.6549789258048733        0.1116082371158103       -6.0304135739986754E-002 
  -1.4104742626861481E-002   8.6752935741823828E-003    218.0892067156495     
   0.7881258603474559        0.1116082371158103       -2.5450558822861513E-002 
  -1.3929565728990527E-002   1.0595555936627775E-002    167.2632095588633     
   0.8883917628841898        0.1116082371158103       -6.4961479103598143E-003 
  -5.8212181509390976E-003   9.7396004000520550E-003    125.5104421664811     
   0.9566551655840363        0.1116082371158103       -8.3572751111391332E-004 
  -7.5925687209951937E-004   8.7856297389962736E-003    109.1105798349073     
    1.000000000000000        0.1116082371158103        7.9385864912329148E-005 
   1.0030377979519243E-004   8.2518968631596513E-003    100.0000000000000     
    0.000000000000000        0.2118741396525440       -8.1177111876822201E-006 
   1.0586866987549839E-005   1.9809746985080092E-003    100.0000000000000     
   4.3344834415963651E-002   0.2118741396525440       -2.7609877054352405E-003 
   1.1907141767678408E-002   6.6522587838838208E-004    126.9166593241371     
   0.1116082371158103        0.2118741396525440       -1.5752534277695091E-002 
   2.9624884720554190E-002  -3.3421894199296817E-004    207.5448197499420     
   0.2118741396525440        0.2118741396525440       -4.9761058426323411E-002 
   4.1809496694127798E-002  -1.9904773494874152E-003    170.4546773117340     
   0.3450210741951267        0.2118741396525440       -9.5055667629792673E-002 
   3.4392452835139434E-002  -1.1911712120810884E-003    285.8614833777374     
   0.5000000000000000        0.2118741396525440       -0.1310686034710747      
   1.0552354608194107E-004   7.6143726317429920E-004    381.2283849219824     
   0.6549789258048733        0.2118741396525440       -0.1101625959594850      
  -4.0640161257790991E-002   7.4846138106348381E-003    345.8389421842111     
   0.7881258603474559        0.2118741396525440       -5.3218750722017399E-002 
  -4.9176126511791200E-002   9.6772833067367992E-003    242.9243191994467     
   0.8883917628841898        0.2118741396525440       -1.6264631756871456E-002 
  -2.8387861308323218E-002   7.2016466428547130E-003    155.0287730473650     
   0.9566551655840363        0.2118741396525440       -2.8239728032716750E-003 
  -1.0254009882503036E-002   5.6736943063017825E-003    111.1133559278886     
    1.000000000000000        0.2118741396525440         0.000000000000000      
    0.000000000000000        4.2718395576701405E-003    100.0000000000000     
    0.000000000000000        0.3450210741951267         0.000000000000000      
    0.000000000000000       -1.6684389289476033E-003    100.0000000000000     
   4.3344834415963651E-002   0.3450210741951267       -3.8168104518489366E-003 
   3.2492505029131688E-002  -3.3481868905700825E-003    133.8420577954409     
   0.1116082371158103        0.3450210741951267       -2.2864068400253248E-002 
   7.0185927882492949E-002  -5.0849559447194237E-003    139.0296433150714     
   0.2118741396525440        0.3450210741951267       -6.6061916176887142E-002 
   9.4769130897669501E-002  -6.9585812785215757E-003    379.9636446653240     
   0.3450210741951267        0.3450210741951267       -0.1204823930326509      
   7.2970108822573806E-002  -8.6951069984252359E-003    300.9844618682056     
   0.5000000000000000        0.3450210741951267       -0.1707727486863226      
   1.3309400744750082E-002  -7.1675037167821731E-003    377.6984102737036     
   0.6549789258048733        0.3450210741951267       -0.1734254934234819      
  -8.8876020279382101E-002  -3.6497941683237409E-004    395.6599030491946     
   0.7881258603474559        0.3450210741951267       -0.1062704684178221      
  -0.1287525078649673        9.6217135502149453E-003    362.5517215208225     
   0.8883917628841898        0.3450210741951267       -3.3241580004681900E-002 
  -7.8081159972156783E-002   7.4153084734183937E-003    136.1382833431519     
   0.9566551655840363        0.3450210741951267       -6.0756121422479402E-003 
  -3.2800064675785279E-002   4.2491834415064045E-003    130.3025581192115     
    1.000000000000000        0.3450210741951267         0.000000000000000      
    0.000000000000000        7.0897968708641152E-004    100.0000000000000     
    0.000000000000000        0.5000000000000000         0.000000000000000      
    0.000000000000000       -1.5324161304293782E-002    100.0000000000000     
   4.3344834415963651E-002   0.5000000000000000       -4.5621071984869371E-003 
   6.1710932095696412E-002  -1.7416490248032834E-002    143.2216264213880     
   0.1116082371158103        0.5000000000000000       -2.3429796065058597E-002 
   0.1282569502563447       -1.9302265191099809E-002    357.6498764616590     
   0.2118741396525440        0.5000000000000000       -6.6655150111049138E-002 
   0.1528215809180425       -2.2324151246149032E-002    237.0064500453921     
   0.3450210741951267        0.5000000000000000       -0.1182400595289286      
   0.1285966435563502       -2.5543367896714842E-002    272.0090683462201     
   0.5000000000000000        0.5000000000000000       -0.1537823424318027      
   4.1381630978830471E-002  -2.8735390950951047E-002    76.86974779621866     
   0.6549789258048733        0.5000000000000000       -0.1859592656594934      
  -0.1014049794771763       -2.2625528803245566E-002    126.4995593431093     
   0.7881258603474559        0.5000000000000000       -0.1759304203621183      
  -0.2641104402301107       -5.1837787686844165E-003    407.0904644034036     
   0.8883917628841898        0.5000000000000000       -7.8048013620628687E-002 
  -0.2339037613331353        3.0731237130782389E-003    402.6372956306861     
   0.9566551655840363        0.5000000000000000       -1.3139696062899423E-002 
  -0.1001155883648575       -4.4591429744397105E-003    171.9968922606116     
    1.000000000000000        0.5000000000000000         0.000000000000000      
    0.000000000000000       -1.0594389505174863E-002    100.0000000000000     
    0.000000000000000        0.6549789258048733         0.000000000000000      
    0.000000000000000       -3.9008254516023549E-002    100.0000000000000     
   4.3344834415963651E-002   0.6549789258048733       -2.5605505982793653E-003 
   9.1045693748183956E-002  -4.0310456156559364E-002    238.2953855538843     
   0.1116082371158103        0.6549789258048733       -2.4709347649345542E-002 
   0.1773754292277172       -4.3295180227415096E-002    160.5876007962955     
   0.2118741396525440        0.6549789258048733       -5.8092604697402857E-002 
   0.2125225235074739       -4.3806542229495843E-002    273.0802872352617     
   0.3450210741951267        0.6549789258048733       -7.7001939265239294E-002 
   0.1554085154416683       -4.7359618550025205E-002    89.82565869339335     
   0.5000000000000000        0.6549789258048733       -9.5265660470799124E-002 
   8.0674393265290703E-002  -5.4505428367426514E-002   0.8876929128509173     
   0.6549789258048733        0.6549789258048733       -0.1081861100635239      
  -5.2674610029898587E-002  -5.3177797231632164E-002   -46.11652477141397     
   0.7881258603474559        0.6549789258048733       -0.1388555908359055      
  -0.2822947798221036       -3.0415587959549607E-002    16.35470478645484     
   0.8883917628841898        0.6549789258048733       -0.1179780840702185      
  -0.4474197589355500        5.7194462254871832E-003    355.4288478388420     
   0.9566551655840363        0.6549789258048733       -2.7039921711155962E-002 
  -0.2387889955780111        6.9526185245922124E-003    294.6988251171267     
    1.000000000000000        0.6549789258048733         0.000000000000000      
    0.000000000000000       -4.5019234394082872E-003    100.0000000000000     
    0.000000000000000        0.7881258603474559         0.000000000000000      
    0.000000000000000       -6.4356492981222729E-002    100.0000000000000     
   4.3344834415963651E-002   0.7881258603474559       -1.5175639414563805E-002 
   0.1231365283083133       -7.0153404837119043E-002    55.32835636216215     
   0.1116082371158103        0.7881258603474559       -4.0431187108194558E-002 
   0.2352926473589767       -6.7165386020132722E-002    411.3771183131830     
   0.2118741396525440        0.7881258603474559       -6.1722110621336833E-002 
   0.2174494348640929       -5.7317374164180514E-002    202.0979413311467     
   0.3450210741951267        0.7881258603474559       -3.8616872484013499E-002 
   0.1659846629583167       -5.8579653493592294E-002    54.06033186771813     
   0.5000000000000000        0.7881258603474559        1.8352634701395139E-002 
   8.7870366996530586E-002  -6.6494511271512638E-002   -14.71770671742501     
   0.6549789258048733        0.7881258603474559        4.4384670662851067E-002 
  -1.0591858629761535E-002  -6.5070896440042769E-002   -49.65687989726133     
   0.7881258603474559        0.7881258603474559        2.7916681408775079E-002 
  -0.1807149816233409       -2.5535641631285289E-002    111.4746855006306     
   0.8883917628841898        0.7881258603474559       -5.5329572742045537E-002 
  -0.4823726964110950        4.4735969363157206E-002    235.1625620258537     
   0.9566551655840363        0.7881258603474559       -3.5341372759988075E-002 
  -0.4417652136609103        8.2221410876608544E-002    390.0160067715838     
    1.000000000000000        0.7881258603474559         0.000000000000000      
    0.000000000000000        6.2804743576493280E-002    100.0000000000000     
    0.000000000000000        0.8883917628841898         0.000000000000000      
    0.000000000000000       -9.3209004419692959E-002    100.0000000000000     
   4.3344834415963651E-002   0.8883917628841898       -2.6541737980068932E-002 
   0.2271070552894942       -0.1330959426708108         420.6305001676020     
   0.1116082371158103        0.8883917628841898       -0.1239931300305096      
   0.2404782908563103       -8.4530334705914117E-002    140.8548303565586     
   0.2118741396525440        0.8883917628841898       -1.0883616032157808E-002 
   0.1846393541614387       -6.3709977655189209E-002    130.0362496092745     
   0.3450210741951267        0.8883917628841898        0.1506602133019160      
   9.2765058295611283E-002  -5.3326755764346381E-002    51.15522201493866     
   0.5000000000000000        0.8883917628841898        0.2937402619267513      
   4.8247729723259254E-002  -6.1167526116904972E-002    27.28314349296620     
   0.6549789258048733        0.8883917628841898        0.3277648499959323      
  -6.5186650249758589E-003  -5.5826508392417380E-002    18.22313594920460     
   0.7881258603474559        0.8883917628841898        0.3023344924016621      
  -7.9153990451354211E-002   7.0272749740818638E-003    95.13934668160704     
   0.8883917628841898        0.8883917628841898        0.1095113857537223      
  -0.2889660822014841        0.1505580969659513         248.3834161727044     
   0.9566551655840363        0.8883917628841898       -5.4979721678206431E-002 
  -0.5066129299433972        0.2548441371413506         199.4091058023633     
    1.000000000000000        0.8883917628841898         0.000000000000000      
    0.000000000000000        0.1975246553503657         100.0000000000000     
    0.000000000000000        0.9566551655840363         0.000000000000000      
    0.000000000000000       -0.4049203013984630         100.0000000000000     
   4.3344834415963651E-002   0.9566551655840363       -0.2302358175723870      
   0.3449743118387692       -0.2359530844570582         128.5041165863521     
   0.1116082371158103        0.9566551655840363        0.1695193528991217      
   0.1109806798111999       -0.1177031877267227         221.4454879718171     
   0.2118741396525440        0.9566551655840363        0.4204351643130478      
   4.5057081323220595E-002  -4.3281215257006220E-002    285.7326340305335     
   0.3450210741951267        0.9566551655840363        0.6173198243185438      
   1.6510975127521008E-002  -3.2691112182271644E-002    342.6325696359987     
   0.5000000000000000        0.9566551655840363        0.6450667623590691      
   7.5991005665471565E-003  -5.2201033042124284E-002    285.5667885578221     
   0.6549789258048733        0.9566551655840363        0.7297915685337906      
  -3.9035668073804891E-003  -4.2059141474712319E-002    305.4096902940987     
   0.7881258603474559        0.9566551655840363        0.5852009272930695      
  -2.4496067183170211E-002   3.2670620539845992E-002    246.6862591008834     
   0.8883917628841898        0.9566551655840363        0.4859661999354120      
  -5.2003173380114592E-002   0.2426549302715615         255.9621675967031     
   0.9566551655840363        0.9566551655840363       -3.4481908673787358E-002 
  -0.3070915354857259        0.5955086522734175         459.7490222490411     
    1.000000000000000        0.9566551655840363         0.000000000000000      
    0.000000000000000         1.043365233693265         100.0000000000000     
    0.000000000000000         1.000000000000000         1.000000000000000      
    0.000000000000000        -2.904392946469085         500.0000000000000     
   4.3344834415963651E-002    1.000000000000000         1.000000000000000      
    0.000000000000000       -7.1163370093122347E-002    500.0000000000000     
   0.1116082371158103         1.000000000000000         1.000000000000000      
    0.000000000000000        3.4521601721439407E-003    500.0000000000000     
   0.2118741396525440         1.000000000000000         1.000000000000000      
    0.000000000000000       -1.6873277360772897E-002    500.0000000000000     
   0.3450210741951267         1.000000000000000         1.000000000000000      
    0.000000000000000       -2.2074919907103190E-002    500.0000000000000     
   0.5000000000000000         1.000000000000000         1.000000000000000      
    0.000000000000000       -4.7332009966195659E-002    500.0000000000000     
   0.6549789258048733         1.000000000000000         1.000000000000000      
    0.000000000000000       -4.3342456117846970E-002    500.0000000000000     
   0.7881258603474559         1.000000000000000         1.000000000000000      
    0.000000000000000        2.1833887317672471E-002    500.0000000000000     
   0.8883917628841898         1.000000000000000         1.000000000000000      
    0.000000000000000        0.2017184574865086         500.0000000000000     
   0.9566551655840363         1.000000000000000         1.000000000000000      
    0.000000000000000        0.5851783930541986         500.0000000000000     
    1.000000000000000         1.000000000000000         1.000000000000000      
    0.000000000000000         3.137182168722412         500.0000000000000     
