 VARIABLES="X" "Y" "U<sub>x" "V<sub>y" "Pressure" "Temprature"
 Zone i=           51 ,j=           51 ,k=1,f=point
    0.000000000000000         0.000000000000000         0.000000000000000      
    0.000000000000000         0.000000000000000         100.0000000000000     
   2.0000000000000000E-002    0.000000000000000         0.000000000000000      
  -4.6410123688790913E-007   6.1884307472913347E-005    100.0000000000000     
   4.0000000000000001E-002    0.000000000000000        2.3223611286679565E-007 
  -7.7301551452976133E-008   9.7355653364062362E-005    100.0000000000000     
   5.9999999999999998E-002    0.000000000000000        3.6565795659069309E-007 
  -1.2130839176487663E-007   4.0176024102717187E-005    100.0000000000000     
   8.0000000000000002E-002    0.000000000000000         0.000000000000000      
  -4.9978492573184314E-008  -1.1658382467641989E-004    100.0000000000000     
   0.1000000000000000         0.000000000000000         0.000000000000000      
    0.000000000000000       -3.5399627319799323E-004    100.0000000000000     
   0.1200000000000000         0.000000000000000         0.000000000000000      
    0.000000000000000       -6.5669219390859953E-004    100.0000000000000     
   0.1400000000000000         0.000000000000000         0.000000000000000      
    0.000000000000000       -1.0152019562971782E-003    100.0000000000000     
   0.1600000000000000         0.000000000000000         0.000000000000000      
    0.000000000000000       -1.4262449906687839E-003    100.0000000000000     
   0.1800000000000000         0.000000000000000         0.000000000000000      
    0.000000000000000       -1.8911427320331452E-003    100.0000000000000     
   0.2000000000000000         0.000000000000000         0.000000000000000      
    0.000000000000000       -2.4185400767975434E-003    100.0000000000000     
   0.2200000000000000         0.000000000000000         0.000000000000000      
    0.000000000000000       -3.0096003747062368E-003    100.0000000000000     
   0.2400000000000000         0.000000000000000         0.000000000000000      
    0.000000000000000       -3.6588081075491787E-003    100.0000000000000     
   0.2600000000000000         0.000000000000000         0.000000000000000      
    0.000000000000000       -4.3511573049393442E-003    100.0000000000000     
   0.2800000000000000         0.000000000000000         0.000000000000000      
    0.000000000000000       -5.0667366977850369E-003    100.0000000000000     
   0.3000000000000000         0.000000000000000         0.000000000000000      
    0.000000000000000       -5.7820459312464059E-003    100.0000000000000     
   0.3200000000000000         0.000000000000000         0.000000000000000      
    0.000000000000000       -6.4719838136705942E-003    100.0000000000000     
   0.3400000000000000         0.000000000000000         0.000000000000000      
    0.000000000000000       -7.1131945335445295E-003    100.0000000000000     
   0.3600000000000000         0.000000000000000         0.000000000000000      
    0.000000000000000       -7.6725962100119924E-003    100.0000000000000     
   0.3800000000000000         0.000000000000000         0.000000000000000      
    0.000000000000000       -8.1181859235702307E-003    100.0000000000000     
   0.4000000000000000         0.000000000000000         0.000000000000000      
    0.000000000000000       -8.4056281546193157E-003    100.0000000000000     
   0.4200000000000000         0.000000000000000         0.000000000000000      
    0.000000000000000       -8.4923719815129268E-003    100.0000000000000     
   0.4400000000000000         0.000000000000000         0.000000000000000      
    0.000000000000000       -8.3323793296047020E-003    100.0000000000000     
   0.4600000000000000         0.000000000000000         0.000000000000000      
    0.000000000000000       -7.8885136234169012E-003    100.0000000000000     
   0.4800000000000000         0.000000000000000         0.000000000000000      
    0.000000000000000       -7.1356499260656139E-003    100.0000000000000     
   0.5000000000000000         0.000000000000000         0.000000000000000      
    0.000000000000000       -6.0709781101270441E-003    100.0000000000000     
   0.5200000000000000         0.000000000000000         0.000000000000000      
    0.000000000000000       -4.7200113578144834E-003    100.0000000000000     
   0.5400000000000000         0.000000000000000         0.000000000000000      
    0.000000000000000       -3.1417277029946061E-003    100.0000000000000     
   0.5600000000000001         0.000000000000000         0.000000000000000      
    0.000000000000000       -1.4293100544968010E-003    100.0000000000000     
   0.5800000000000000         0.000000000000000         0.000000000000000      
    0.000000000000000        2.9460865896325459E-004    100.0000000000000     
   0.6000000000000000         0.000000000000000         0.000000000000000      
    0.000000000000000        1.8895960516849527E-003    100.0000000000000     
   0.6200000000000000         0.000000000000000         0.000000000000000      
    0.000000000000000        3.2047095326297329E-003    100.0000000000000     
   0.6400000000000000         0.000000000000000         0.000000000000000      
    0.000000000000000        4.1065618993139643E-003    100.0000000000000     
   0.6600000000000000         0.000000000000000         0.000000000000000      
    0.000000000000000        4.5113494386249961E-003    100.0000000000000     
   0.6800000000000001         0.000000000000000         0.000000000000000      
    0.000000000000000        4.3981620955467083E-003    100.0000000000000     
   0.7000000000000000         0.000000000000000         0.000000000000000      
    0.000000000000000        3.8973466649924586E-003    100.0000000000000     
   0.7200000000000000         0.000000000000000         0.000000000000000      
    0.000000000000000        3.1398047139459626E-003    100.0000000000000     
   0.7400000000000000         0.000000000000000         0.000000000000000      
    0.000000000000000        2.2357111260352816E-003    100.0000000000000     
   0.7600000000000000         0.000000000000000         0.000000000000000      
    0.000000000000000        1.2719044186166770E-003    100.0000000000000     
   0.7800000000000000         0.000000000000000         0.000000000000000      
    0.000000000000000        3.2607335841034553E-004    100.0000000000000     
   0.8000000000000000         0.000000000000000         0.000000000000000      
    0.000000000000000       -5.4721087031167365E-004    100.0000000000000     
   0.8200000000000000         0.000000000000000         0.000000000000000      
    0.000000000000000       -1.3092527556514788E-003    100.0000000000000     
   0.8400000000000000         0.000000000000000         0.000000000000000      
    0.000000000000000       -1.9412573665677545E-003    100.0000000000000     
   0.8600000000000000         0.000000000000000         0.000000000000000      
    0.000000000000000       -2.4397756688612610E-003    100.0000000000000     
   0.8800000000000000         0.000000000000000         0.000000000000000      
    0.000000000000000       -2.8127695643938534E-003    100.0000000000000     
   0.9000000000000000         0.000000000000000         0.000000000000000      
    0.000000000000000       -3.0729063074991722E-003    100.0000000000000     
   0.9200000000000000         0.000000000000000         0.000000000000000      
    0.000000000000000       -3.2322840927686493E-003    100.0000000000000     
   0.9400000000000000         0.000000000000000         0.000000000000000      
    0.000000000000000       -3.2992231443809829E-003    100.0000000000000     
   0.9600000000000000         0.000000000000000         0.000000000000000      
    0.000000000000000       -3.2772821422962029E-003    100.0000000000000     
   0.9800000000000000         0.000000000000000         0.000000000000000      
    0.000000000000000       -3.1928377367065898E-003    100.0000000000000     
    1.000000000000000         0.000000000000000         0.000000000000000      
    0.000000000000000       -3.1255963083323818E-003    100.0000000000000     
    0.000000000000000        2.0000000000000000E-002  -7.7328771244563883E-008 
   7.7143977548089651E-008  -6.2051078170729498E-005    100.0000000000000     
   2.0000000000000000E-002   2.0000000000000000E-002   4.3186567347165477E-004 
  -4.3151983038850302E-004   4.1709229670600216E-008    101.1690298168734     
   4.0000000000000001E-002   2.0000000000000000E-002   1.8159534962570471E-003 
  -7.2798069689694448E-004  -1.5135976653908781E-005    102.2415017647951     
   5.9999999999999998E-002   2.0000000000000000E-002   3.4600566159257527E-003 
  -7.7779469206276446E-004  -8.3256235128039099E-005    103.2575452111112     
   8.0000000000000002E-002   2.0000000000000000E-002   5.0218108545351603E-003 
  -6.6574800896145817E-004  -2.2667098136011765E-004    104.1606001819161     
   0.1000000000000000        2.0000000000000000E-002   6.2205309202630890E-003 
  -4.8185645021500093E-004  -4.3446330638890644E-004    104.9550723632188     
   0.1200000000000000        2.0000000000000000E-002   6.9510774477826104E-003 
  -2.7283521270421641E-004  -7.0179588416139109E-004    105.6508012685906     
   0.1400000000000000        2.0000000000000000E-002   7.1688810725383566E-003 
  -5.9012989118874415E-005  -1.0223221957060577E-003    106.2648510468745     
   0.1600000000000000        2.0000000000000000E-002   6.8565899637062448E-003 
   1.5706753467742947E-004  -1.3948957910088554E-003    106.8115874850503     
   0.1800000000000000        2.0000000000000000E-002   5.9890193099787787E-003 
   3.7715734406327872E-004  -1.8203923299074055E-003    107.3168725408212     
   0.2000000000000000        2.0000000000000000E-002   4.5155524268926054E-003 
   6.4254166711873498E-004  -2.2981300131214286E-003    107.7927252385317     
   0.2200000000000000        2.0000000000000000E-002   2.3478247596005180E-003 
   9.6031255162998524E-004  -2.8320229305394194E-003    108.2776286653950     
   0.2400000000000000        2.0000000000000000E-002  -6.4869477708092533E-004 
   1.3288460065152350E-003  -3.4185545174015325E-003    108.8238236175881     
   0.2600000000000000        2.0000000000000000E-002  -4.5618820104701115E-003 
   1.7200940903113536E-003  -4.0448258242111370E-003    109.4691481546068     
   0.2800000000000000        2.0000000000000000E-002  -9.4160773262323555E-003 
   2.1125797621610672E-003  -4.6947279871407070E-003    110.2642944727635     
   0.3000000000000000        2.0000000000000000E-002  -1.5186225107191429E-002 
   2.4763584922924114E-003  -5.3487097255800449E-003    111.2051606851575     
   0.3200000000000000        2.0000000000000000E-002  -2.1765003184832352E-002 
   2.7856223175443330E-003  -5.9874535470459357E-003    112.3161631985445     
   0.3400000000000000        2.0000000000000000E-002  -2.9023454681203993E-002 
   3.0496828481114437E-003  -6.5838094356944635E-003    113.5566217608981     
   0.3600000000000000        2.0000000000000000E-002  -3.6783386655162113E-002 
   3.2339979693671818E-003  -7.1133483832178171E-003    114.9389909712392     
   0.3800000000000000        2.0000000000000000E-002  -4.4837415712372160E-002 
   3.3551263770008576E-003  -7.5368592134272645E-003    116.4181801848119     
   0.4000000000000000        2.0000000000000000E-002  -5.2933552554098484E-002 
   3.3757551490441089E-003  -7.8191541348675547E-003    117.9940334041269     
   0.4200000000000000        2.0000000000000000E-002  -6.0795103730658162E-002 
   3.2966048675528237E-003  -7.9155420688572630E-003    119.6337806130736     
   0.4400000000000000        2.0000000000000000E-002  -6.8103560515530043E-002 
   3.0864673009880117E-003  -7.7877850322653945E-003    121.3377748049363     
   0.4600000000000000        2.0000000000000000E-002  -7.4533254000227520E-002 
   2.7317630531550597E-003  -7.4018859293429207E-003    123.0776527001921     
   0.4800000000000000        2.0000000000000000E-002  -7.9724174634080186E-002 
   2.2113320592185002E-003  -6.7386826176266843E-003    124.8485326979712     
   0.5000000000000000        2.0000000000000000E-002  -8.3346457896535484E-002 
   1.5129900845891494E-003  -5.7993313306196354E-003    126.6030314825514     
   0.5200000000000000        2.0000000000000000E-002  -8.5052812292431848E-002 
   6.3879719023847903E-004  -4.6097632671443711E-003    128.3210210601337     
   0.5400000000000000        2.0000000000000000E-002  -8.4594517198181451E-002 
  -3.9388402267691606E-004  -3.2259158210624669E-003    129.9153059634418     
   0.5600000000000001        2.0000000000000000E-002  -8.1752196634517105E-002 
  -1.5434007108046433E-003  -1.7311821371887332E-003    131.3384538361418     
   0.5800000000000000        2.0000000000000000E-002  -7.6473848373715930E-002 
  -2.7362366210922384E-003  -2.3127613171733508E-004    132.4718469095049     
   0.6000000000000000        2.0000000000000000E-002  -6.8819257849014437E-002 
  -3.8971032690001965E-003   1.1514390554704377E-003    133.2265576924761     
   0.6200000000000000        2.0000000000000000E-002  -5.9035338849084996E-002 
  -4.8919084821774069E-003   2.2990154370281291E-003    133.4571177085066     
   0.6400000000000000        2.0000000000000000E-002  -4.7572011599025632E-002 
  -5.5468775153215766E-003   3.1049983395771163E-003    132.9942200344717     
   0.6600000000000000        2.0000000000000000E-002  -3.5296581163861279E-002 
  -5.7425245123818624E-003   3.4939193309719823E-003    131.6906100995021     
   0.6800000000000001        2.0000000000000000E-002  -2.3212096987119943E-002 
  -5.2226807281361568E-003   3.4901888314056422E-003    129.8187142143196     
   0.7000000000000000        2.0000000000000000E-002  -1.2525845502485268E-002 
  -4.4152744420874130E-003   3.1243026582738532E-003    127.3262827620875     
   0.7200000000000000        2.0000000000000000E-002  -3.5162176248761299E-003 
  -3.5251294793598618E-003   2.5197922668658843E-003    124.7239396796305     
   0.7400000000000000        2.0000000000000000E-002   3.6423378274915235E-003 
  -2.6182486614114765E-003   1.7647151412526958E-003    121.9140936184614     
   0.7600000000000000        2.0000000000000000E-002   9.0021657538389682E-003 
  -1.7750197600814540E-003   9.4895260681570801E-004    119.2205122247652     
   0.7800000000000000        2.0000000000000000E-002   1.2612655171452759E-002 
  -1.0170723730519391E-003   1.3294674108345572E-004    116.6583089052432     
   0.8000000000000000        2.0000000000000000E-002   1.4605609386752235E-002 
  -3.6142924960865555E-004  -6.2619099150020084E-004    114.3087342961356     
   0.8200000000000000        2.0000000000000000E-002   1.5203038328108421E-002 
   1.6715076410686765E-004  -1.2949674333501335E-003    112.1765139642929     
   0.8400000000000000        2.0000000000000000E-002   1.4666793333587847E-002 
   5.6817876883175566E-004  -1.8543407196505350E-003    110.2605744411889     
   0.8600000000000000        2.0000000000000000E-002   1.3275985113288516E-002 
   8.4694916835191124E-004  -2.3013553488251837E-003    108.5445617756172     
   0.8800000000000000        2.0000000000000000E-002   1.1291587486637795E-002 
   1.0223618781281213E-003  -2.6412258621741746E-003    107.0035615300485     
   0.9000000000000000        2.0000000000000000E-002   8.9421688405533981E-003 
   1.1104408339381085E-003  -2.8850215471448054E-003    105.6117894867665     
   0.9200000000000000        2.0000000000000000E-002   6.4381962463549210E-003 
   1.1188202871652974E-003  -3.0431565447790257E-003    104.3473909986537     
   0.9400000000000000        2.0000000000000000E-002   3.9818837533178077E-003 
   1.0353108466305842E-003  -3.1284113949245911E-003    103.1899055661788     
   0.9600000000000000        2.0000000000000000E-002   1.8659421273998561E-003 
   8.0411137518671019E-004  -3.1467816533822810E-003    102.1171639916534     
   0.9800000000000000        2.0000000000000000E-002   3.8287720683815793E-004 
   3.8443375120099431E-004  -3.1286292963555581E-003    101.0780569846495     
    1.000000000000000        2.0000000000000000E-002  -7.8980215065953527E-006 
  -1.5710159666255278E-005  -3.0641124180770013E-003    100.0000000000000     
    0.000000000000000        4.0000000000000001E-002   2.3915135358968057E-007 
  -3.9367632366887017E-007  -9.8618709029568426E-005    100.0000000000000     
   2.0000000000000000E-002   4.0000000000000001E-002   7.3372412791077751E-004 
  -1.8215727103894780E-003   1.4499478300376837E-005    102.2538255163335     
   4.0000000000000001E-002   4.0000000000000001E-002   2.7790578055448076E-003 
  -2.7737423366235919E-003  -2.8297030241879115E-006    104.3894985058305     
   5.9999999999999998E-002   4.0000000000000001E-002   4.9725114431754076E-003 
  -2.8750423986181701E-003  -7.0080630573563247E-005    106.4211991187811     
   8.0000000000000002E-002   4.0000000000000001E-002   6.8954640585538775E-003 
  -2.3810691892579491E-003  -2.1248755733575489E-004    108.2419278066358     
   0.1000000000000000        4.0000000000000001E-002   8.1336857563961504E-003 
  -1.5717291335777866E-003  -4.1195495879590738E-004    109.8566848706147     
   0.1200000000000000        4.0000000000000001E-002   8.5092222735006669E-003 
  -6.2709167379267289E-004  -6.6490331613337078E-004    111.2713915224553     
   0.1400000000000000        4.0000000000000001E-002   7.9164067200231877E-003 
   3.6914075638063267E-004  -9.6627151886836244E-004    112.5116221646851     
   0.1600000000000000        4.0000000000000001E-002   6.2823557622985471E-003 
   1.4188231959831119E-003  -1.3155990619622862E-003    113.6215840951200     
   0.1800000000000000        4.0000000000000001E-002   3.5252264262632164E-003 
   2.5439089915650875E-003  -1.7100843143326820E-003    114.6111685699183     
   0.2000000000000000        4.0000000000000001E-002  -4.1252371252281672E-004 
   3.7593234843992409E-003  -2.1662394252027297E-003    115.5706826980426     
   0.2200000000000000        4.0000000000000001E-002  -5.6843946906468381E-003 
   5.1722275304090740E-003  -2.6799188374981579E-003    116.5555891437018     
   0.2400000000000000        4.0000000000000001E-002  -1.2363750741909024E-002 
   6.7918153279385267E-003  -3.2478988114612237E-003    117.6608110153931     
   0.2600000000000000        4.0000000000000001E-002  -2.0537658233263395E-002 
   8.5000559088261925E-003  -3.8548219350990893E-003    119.0315561554369     
   0.2800000000000000        4.0000000000000001E-002  -3.0207397904233081E-002 
   1.0187123667478201E-002  -4.4919787395077100E-003    120.6745303613649     
   0.3000000000000000        4.0000000000000001E-002  -4.1227529083664123E-002 
   1.1729904864500680E-002  -5.1389929217366048E-003    122.6694721145594     
   0.3200000000000000        4.0000000000000001E-002  -5.3438867339879167E-002 
   1.3048050684927773E-002  -5.7740497917774629E-003    124.9108071982519     
   0.3400000000000000        4.0000000000000001E-002  -6.6454060981715884E-002 
   1.4026489390290952E-002  -6.3868131695346414E-003    127.5027304589118     
   0.3600000000000000        4.0000000000000001E-002  -7.9928585207393696E-002 
   1.4654893324859036E-002  -6.9394763132244195E-003    130.2949872321217     
   0.3800000000000000        4.0000000000000001E-002  -9.3367063983243709E-002 
   1.4787488326844544E-002  -7.4143119820697830E-003    133.3477611764912     
   0.4000000000000000        4.0000000000000001E-002  -0.1062967163630260      
   1.4425269991258280E-002  -7.7621672222832972E-003    136.5179352019989     
   0.4200000000000000        4.0000000000000001E-002  -0.1181729181107073      
   1.3473582770281441E-002  -7.9472021885369504E-003    139.8296926488849     
   0.4400000000000000        4.0000000000000001E-002  -0.1285162802273878      
   1.1936860230879892E-002  -7.9193177143266867E-003    143.1738643175887     
   0.4600000000000000        4.0000000000000001E-002  -0.1368325176984977      
   9.7907659831805022E-003  -7.6398336912681542E-003    146.5424742600434     
   0.4800000000000000        4.0000000000000001E-002  -0.1427572498635816      
   7.0656893380049331E-003  -7.0783920040691940E-003    149.8259298561501     
   0.5000000000000000        4.0000000000000001E-002  -0.1459235972808307      
   3.8109198443729733E-003  -6.2236830787123542E-003    152.9989216743599     
   0.5200000000000000        4.0000000000000001E-002  -0.1461773148681425      
   1.1468715189496837E-004  -5.0923210536203290E-003    155.9129706675947     
   0.5400000000000000        4.0000000000000001E-002  -0.1433304311780470      
  -3.8881206688779211E-003  -3.7317283346321038E-003    158.5337209847544     
   0.5600000000000001        4.0000000000000001E-002  -0.1374635506192918      
  -8.0252167180872233E-003  -2.2214442827318101E-003    160.6700952977982     
   0.5800000000000000        4.0000000000000001E-002  -0.1286342272368332      
  -1.2095987786487778E-002  -6.7763378767220575E-004    162.2587006927408     
   0.6000000000000000        4.0000000000000001E-002  -0.1171058063677430      
  -1.5850651140963158E-002   7.7470000516300817E-004    163.1370057851003     
   0.6200000000000000        4.0000000000000001E-002  -0.1031962146634775      
  -1.9080237933293172E-002   1.9945618229516818E-003    163.1940220095420     
   0.6400000000000000        4.0000000000000001E-002  -8.7273646272601160E-002 
  -2.1397773106864634E-002   2.8588684182020269E-003    162.2610875020077     
   0.6600000000000000        4.0000000000000001E-002  -6.9456090156563469E-002 
  -2.2021375179080753E-002   3.3249151979737688E-003    160.2395942502138     
   0.6800000000000001        4.0000000000000001E-002  -5.1605703976739317E-002 
  -2.0981932051725632E-002   3.2656908221128187E-003    156.6348781442793     
   0.7000000000000000        4.0000000000000001E-002  -3.4404210078047170E-002 
  -1.8259793302792846E-002   2.8626664452681919E-003    152.7826846786000     
   0.7200000000000000        4.0000000000000001E-002  -1.9583155994501233E-002 
  -1.5227135398616009E-002   2.2604538026172734E-003    147.9262184769152     
   0.7400000000000000        4.0000000000000001E-002  -6.6616196986394038E-003 
  -1.2021177646333987E-002   1.5049207478351403E-003    142.9776130427722     
   0.7600000000000000        4.0000000000000001E-002   3.7304037368442256E-003 
  -8.8244496466365566E-003   7.0589058043334628E-004    137.9084771844316     
   0.7800000000000000        4.0000000000000001E-002   1.1513367720692573E-002 
  -5.6997150938754562E-003  -8.0185863031312693E-005    133.1114855360160     
   0.8000000000000000        4.0000000000000001E-002   1.6701627874582462E-002 
  -2.8863975034044442E-003  -8.0283367200498169E-004    128.6040684760543     
   0.8200000000000000        4.0000000000000001E-002   1.9497812426984253E-002 
  -4.9364422269366928E-004  -1.4309359391992331E-003    124.4603215072205     
   0.8400000000000000        4.0000000000000001E-002   2.0230524214487376E-002 
   1.3988495616059830E-003  -1.9508984833037514E-003    120.6960101384977     
   0.8600000000000000        4.0000000000000001E-002   1.9284201361112592E-002 
   2.8014592760372678E-003  -2.3608880923034377E-003    117.2895196083788     
   0.8800000000000000        4.0000000000000001E-002   1.7067282135468008E-002 
   3.7487702981657428E-003  -2.6697202929848091E-003    114.2034628826482     
   0.9000000000000000        4.0000000000000001E-002   1.3977667503331143E-002 
   4.2959678845620099E-003  -2.8899079792901595E-003    111.3964282056363     
   0.9200000000000000        4.0000000000000001E-002   1.0397900597628641E-002 
   4.4577022431826164E-003  -3.0335859475357249E-003    108.8343041139995     
   0.9400000000000000        4.0000000000000001E-002   6.7067898335624217E-003 
   4.1905465465205015E-003  -3.1151040406650018E-003    106.4558445703663     
   0.9600000000000000        4.0000000000000001E-002   3.3933384849523730E-003 
   3.3592893376036704E-003  -3.1301198462234873E-003    104.2540847527624     
   0.9800000000000000        4.0000000000000001E-002   8.2659306467012508E-004 
   1.8750760315282683E-003  -3.1135884862039157E-003    102.0984822389044     
    1.000000000000000        4.0000000000000001E-002  -7.5983943439541448E-006 
  -1.5271414058715225E-005  -2.9851113238123918E-003    100.0000000000000     
    0.000000000000000        5.9999999999999998E-002   1.2383737795127342E-007 
  -3.6895599480550437E-007  -3.9794807378399297E-005    100.0000000000000     
   2.0000000000000000E-002   5.9999999999999998E-002   7.8665099097296098E-004 
  -3.4782654358786213E-003   8.2219972028057376E-005    103.3616702728367     
   4.0000000000000001E-002   5.9999999999999998E-002   2.8516222165709845E-003 
  -4.9615976167923445E-003   5.5699481419628015E-005    106.6135437539704     
   5.9999999999999998E-002   5.9999999999999998E-002   4.7973038324941398E-003 
  -4.8637300902181603E-003  -1.7428517741013713E-005    109.6779241557170     
   8.0000000000000002E-002   5.9999999999999998E-002   6.1522005052059925E-003 
  -3.6918759248743991E-003  -1.5992678655156519E-004    112.4429136779093     
   0.1000000000000000        5.9999999999999998E-002   6.4569465330039976E-003 
  -1.9071181190468166E-003  -3.4954462188473227E-004    114.8696643747175     
   0.1200000000000000        5.9999999999999998E-002   5.4920563659713205E-003 
   1.6486796733483132E-004  -5.8463025143769189E-004    117.0039597802125     
   0.1400000000000000        5.9999999999999998E-002   3.1399143127535255E-003 
   2.3910586212625633E-003  -8.5991074674020447E-004    118.9150869063932     
   0.1600000000000000        5.9999999999999998E-002  -7.4283357764545809E-004 
   4.7576082515588761E-003  -1.1884107953993297E-003    120.5764288208104     
   0.1800000000000000        5.9999999999999998E-002  -6.1730967393516158E-003 
   7.2273407291892199E-003  -1.5634830469882521E-003    122.1492245699981     
   0.2000000000000000        5.9999999999999998E-002  -1.3548073376043496E-002 
   1.0034672003201892E-002  -1.9795767143783063E-003    123.5940730381346     
   0.2200000000000000        5.9999999999999998E-002  -2.2515660623974389E-002 
   1.3025559575949584E-002  -2.4637068460595804E-003    124.9834520520792     
   0.2400000000000000        5.9999999999999998E-002  -3.3137879786380726E-002 
   1.6177348573214533E-002  -3.0412034940419620E-003    126.8270351417288     
   0.2600000000000000        5.9999999999999998E-002  -4.5175420199910644E-002 
   1.9329548938851585E-002  -3.6752757064508253E-003    128.8944105103050     
   0.2800000000000000        5.9999999999999998E-002  -5.8564453578574732E-002 
   2.2378998920995652E-002  -4.3632560133213590E-003    131.5355480814548     
   0.3000000000000000        5.9999999999999998E-002  -7.3321835319173592E-002 
   2.5019667399495377E-002  -5.0869552120797676E-003    134.4887934264208     
   0.3200000000000000        5.9999999999999998E-002  -8.8695456101628073E-002 
   2.7013373644061808E-002  -5.8297509530038363E-003    137.8668018430108     
   0.3400000000000000        5.9999999999999998E-002  -0.1046264037642155      
   2.8345301868393676E-002  -6.5525432397817995E-003    141.4947142799461     
   0.3600000000000000        5.9999999999999998E-002  -0.1203086103609085      
   2.8723821811326749E-002  -7.2506364815371994E-003    145.6290633040203     
   0.3800000000000000        5.9999999999999998E-002  -0.1354774819497711      
   2.8264551664589101E-002  -7.8505838431294859E-003    149.8345664553894     
   0.4000000000000000        5.9999999999999998E-002  -0.1494469695160352      
   2.6741478240854676E-002  -8.3313377946195501E-003    154.3438529666303     
   0.4200000000000000        5.9999999999999998E-002  -0.1619002803349646      
   2.4268045652494626E-002  -8.6236194245846182E-003    158.8264735209780     
   0.4400000000000000        5.9999999999999998E-002  -0.1723414598969437      
   2.0772041530794705E-002  -8.6911210149702434E-003    163.3731340329737     
   0.4600000000000000        5.9999999999999998E-002  -0.1805481139340905      
   1.6353347325542580E-002  -8.4892831671825493E-003    167.7703230859749     
   0.4800000000000000        5.9999999999999998E-002  -0.1861842971479818      
   1.1053421534972218E-002  -7.9932795191863110E-003    172.0338035399524     
   0.5000000000000000        5.9999999999999998E-002  -0.1891826881163059      
   4.9962164357421554E-003  -7.2011144802552555E-003    175.9738891398553     
   0.5200000000000000        5.9999999999999998E-002  -0.1892671986494152      
  -1.6890194684701717E-003  -6.1285048326811097E-003    179.6011928929538     
   0.5400000000000000        5.9999999999999998E-002  -0.1864979380649405      
  -8.8062448656129524E-003  -4.8277669506502684E-003    182.6934150042738     
   0.5600000000000001        5.9999999999999998E-002  -0.1806308019304324      
  -1.6121840311123299E-002  -3.3762707806666774E-003    185.2377766351668     
   0.5800000000000000        5.9999999999999998E-002  -0.1717739703425831      
  -2.3287330141354222E-002  -1.8729924790542583E-003    187.0166875447572     
   0.6000000000000000        5.9999999999999998E-002  -0.1599563479619337      
  -3.0016436992345668E-002  -4.4920963766326388E-004    187.8515473708729     
   0.6200000000000000        5.9999999999999998E-002  -0.1453043140277415      
  -3.5799455298165792E-002   7.8444243254074096E-004    187.7327438800524     
   0.6400000000000000        5.9999999999999998E-002  -0.1283193468994075      