 VARIABLES="X","Y","Pressure [Pa]"
 ZONE NODES=         1679 , ELEMENTS=         3218
 , DATAPACKING=BLOCK, ZONETYPE=FETRIANGLE
 , varlocation=([         3218 ,            3 ]=CELLCENTERED)
    14.87940        14.94784        14.77020        14.35087     
    13.70013        12.83405        11.77392        10.54586     
    9.180117        7.710304        6.172628        4.604934     
    3.045844        1.533728       0.1058414       -1.202682     
   -2.359602       -3.336446       -4.109148       -4.658679     
   -4.971527       -5.039970       -4.862332       -4.442986     
   -3.792262       -2.926175       -1.866046      -0.6379896     
   0.7277518        2.197567        3.735242        5.302936     
    6.862026        8.374142        9.802029        11.11055     
    12.26747        13.24432        14.01702        14.56655     
    5.449243        5.446366        5.441566        5.434885     
    5.426337        5.415953        5.403772        5.389849     
    5.374232        5.356987        5.338175        5.317858     
    5.296136        5.273085        5.248790        5.223350     
    5.196868        5.169434        5.141164        5.112172     
    5.082554        5.052449        5.021960        4.991193     
    4.960295        4.929371        4.898526        4.867907     
    4.837617        4.807766        4.778487        4.749878     
    4.722058        4.695142        4.669219        4.644399     
    4.620780        4.598453        4.577500        4.558021     
    4.540088        4.523762        4.509118        4.496205     
    4.485090        4.475813        4.468406        4.462893     
    4.459315        4.457662        4.457974        4.460253     
    4.464506        4.470697        4.478809        4.488815     
    4.500677        4.514339        4.529756        4.546860     
    4.565593        4.585891        4.607652        4.630803     
    4.655252        4.680902        4.707643        4.735385     
    4.764007        4.793388        4.823427        4.853980     
    4.884938        4.916187        4.947575        4.978989     
    5.010316        5.041405        5.072142        5.102415     
    5.132082        5.161042        5.189171        5.216347     
    5.242479        5.267454        5.291172        5.313539     
    5.334472        5.353872        5.371665        5.387789     
    5.402174        5.414766        5.425504        5.434346     
    5.441262        5.446229        5.449208        5.450208     
    9.238670        8.001127        6.688445        5.333204     
    3.968860        2.628549        1.345152       0.1503687     
  -0.9263168       -1.858323       -2.622584       -3.200212     
   -3.576943       -3.743452       -3.695631       -3.434673     
   -2.967031       -2.304292       -1.462837      -0.4634598     
   0.6691284        1.906929        3.219429        4.574674     
    5.939225        7.279525        8.562948        9.757771     
    10.83451        11.76655        12.53084        13.10849     
    13.48523        13.65175        13.60392        13.34296     
    12.87533        12.21258        11.37110        10.37195     
    5.445339        5.448675        5.450488        5.443992     
    5.438056        5.430211        5.420442        5.408782     
    5.395280        5.379997        5.363000        5.344353     
    5.324126        5.302403        5.279274        5.254831     
    5.229171        5.202398        5.174618        5.145939     
    5.116474        5.086343        5.055670        5.024572     
    4.993172        4.961597        4.929976        4.898427     
    4.867078        4.836066        4.805505        4.775525     
    4.746250        4.717795        4.690291        4.663824     
    4.638500        4.614452        4.591782        4.570565     
    4.550890        4.532816        4.516436        4.501831     
    4.489032        4.478096        4.469109        4.462061     
    4.456976        4.453853        4.452748        4.453658     
    4.456549        4.461414        4.468185        4.476867     
    4.487441        4.499887        4.514132        4.530088     
    4.547740        4.566979        4.587712        4.609890     
    4.633408        4.658174        4.684092        4.711034     
    4.738889        4.767578        4.796975        4.826958     
    4.857410        4.888211        4.919250        4.950397     
    4.981529        5.012539        5.043304        5.073698     
    5.103613        5.132938        5.161550        5.189338     
    5.216197        5.242023        5.266720        5.290190     
    5.312339        5.333087        5.352346        5.370041     
    5.386117        5.400509        5.413144        5.423979     
    5.432972        5.440131        5.308626        5.329988     
    5.349768        5.367971        5.384529        5.399416     
    5.412557        5.423844        5.433239        5.440701     
    5.446320        5.449872        5.449706        5.448136     
    5.443215        5.436362        5.427641        5.416939     
    5.404316        5.389815        5.373565        5.355647     
    5.336068        5.314931        5.292319        5.268331     
    5.243057        5.216602        5.189072        5.160571     
    5.131198        5.101096        5.070392        5.039180     
    5.007582        4.975737        4.943775        4.911809     
    4.879960        4.848376        4.817173        4.786471     
    4.756414        4.727126        4.698772        4.671399     
    4.645103        4.620008        4.596280        4.574047     
    4.553411        4.534317        4.516864        4.501276     
    4.487538        4.475697        4.465883        4.458163     
    4.452454        4.448723        4.446948        4.447121     
    4.449198        4.453214        4.459131        4.466998     
    4.476845        4.488737        4.502552        4.518151     
    4.535529        4.554642        4.575259        4.597318     
    4.620838        4.645675        4.671780        4.698925     
    4.726954        4.755850        4.785524        4.815821     
    4.846617        4.877776        4.909179        4.940720     
    4.972254        5.003676        5.034873        5.065714     
    5.096080        5.125859        5.154953        5.183242     
    5.210599        5.236930        5.262129        5.286217     
    12.53031        12.39581        12.07708        11.58265     
    10.92490        10.12032        9.188828        8.153884     
    7.040349        5.875587        4.688745        3.508754     
    2.363744        1.281760       0.2896017      -0.5881078     
   -1.329490       -1.916075       -2.333263       -2.570657     
   -2.622344       -2.487069       -2.168212       -1.673759     
   -1.016060      -0.2115064       0.7198341        1.754763     
    2.867736        4.032275        5.219483        6.399788     
    7.544650        8.626641        9.618967        10.49681     
    11.23830        11.82500        12.24223        12.48049     
    4.604409        4.582208        4.560410        4.539733     
    4.520760        4.503671        4.488447        4.475201     
    4.464198        4.455425        4.448707        4.443919     
    4.440938        4.439647        4.440027        4.442173     
    4.446186        4.452237        4.460507        4.471093     
    4.483747        4.498408        4.515179        4.533733     
    4.553794        4.575395        4.595133        4.622546     
    4.645639        4.675515        4.700900        4.732740     
    4.760125        4.793516        4.822414        4.856698     
    4.884229        4.926953        4.961803        4.996355     
    5.027137        5.060484        5.090137        5.122585     
    5.150905        5.181876        5.208292        5.237287     
    5.261444        5.288000        5.309525        5.333148     
    5.351684        5.372004        5.387371        5.404150     
    5.416015        5.427365        5.436837        5.444374     
    5.447348        5.452163        5.453142        5.449531     
    5.443954        5.436309        5.425591        5.416297     
    5.400729        5.387990        5.368563        5.352789     
    5.329903        5.311270        5.285249        5.263960     
    5.235193        5.211622        5.180583        5.154898     
    5.122060        5.094927        5.061053        5.030104     
    4.994385        4.964294        4.931500        4.903002     
    4.862222        4.830245        4.797743        4.768241     
    4.737175        4.709554        4.679771        4.654063     
    4.625903      -0.7928439      -0.2125952       0.4953751     
    1.312707        2.218763        3.190780        4.204920     
    5.238027        6.265659        7.261178        8.199517     
    9.058518        9.817629        10.45765        10.96227     
    11.31867        11.51785        11.55512        11.42915     
    11.14267        10.70329        10.12213        9.413749     
    8.596075        7.689905        6.718449        5.704006     
    4.669817        3.642305        2.647697        1.709776     
   0.8507162       9.1716580E-02  -0.5481601       -1.052712     
   -1.409143       -1.608414       -1.645432       -1.519203     
   -1.233559        5.450529        5.456108        5.459190     
    5.455986        5.449955        5.447955        5.440099     
    5.423035        5.436343        4.592264        4.564766     
    4.542276        4.518411        4.502498        4.485953     
    4.471369        4.459219        4.449663        4.442451     
    4.437258        4.433762        4.431673        4.430821     
    4.431310        4.433361        4.437276        4.443463     
    4.452197        4.463422        4.478623        4.490565     
    4.510345        4.531256        4.556761        9.484219     
    8.872265        8.165267        7.380159        6.534074     
    5.648530        4.747744        3.853961        2.987007     
    2.166726        1.413283       0.7458379       0.1815734     
  -0.2654084      -0.5834026      -0.7638904      -0.8025669     
  -0.6984480      -0.4543280      -7.6570779E-02   0.4249983     
    1.037391        1.744838        2.529624        3.373944     
    4.258845        5.160948        6.055824        6.922535     
    7.742425        8.496044        9.163915        9.728665     
    10.17578        10.49372        10.67423        10.71274     
    10.60859        10.36451        9.987252        5.461757     
    5.454731        5.456225        5.454989        5.444075     
    5.398376        5.468571        5.466507        5.459333     
    5.415721        4.640322        4.491807        4.466586     
    4.451604        4.441045        4.433554        4.428382     
    4.424902        4.422554        4.420935        4.420000     
    4.420009        4.421440        4.424903        4.431037     
    4.439726        4.462034        4.599006        2.872879     
    3.608669        4.377111        5.162549        5.946272     
    6.705292        7.419159        8.071863        8.649357     
    9.137912        9.524229        9.797654        9.951177     
    9.980495        9.884650        9.666115        9.330618     
    8.886974        8.346901        7.724922        7.038073     
    6.302559        5.532293        4.744277        3.960668     
    3.203827        2.491529        1.838819        1.260967     
   0.7725629       0.3864757       0.1129559      -4.0628977E-02 
  -7.0009395E-02   2.5805863E-02   0.2443976       0.5798972     
    1.023285        1.562869        2.184038        4.785948     
    4.106530        3.449193        2.826795        2.253811     
    1.745180        1.314114       0.9721547       0.7287531     
   0.5908826       0.5623772       0.6437302       0.8322501     
    1.122508        1.506502        1.973804        2.512128     
    3.108864        3.752766        4.430309        5.121567     
    5.804729        6.462814        7.083949        7.656163     
    8.165050        8.596408        8.938228        9.181324     
    9.319199        9.347989        9.266947        9.078633     
    8.788368        8.404320        7.937711        7.400121     
    6.801562        6.153703        5.475008        4.704091     
    4.519928        4.441048        4.428844        4.421098     
    4.416292        4.413411        4.411458        4.410769     
    4.409197        4.406510        4.405202        4.405507     
    4.408169        4.414151        4.484275        4.662439     
    5.366634        5.425490        5.465168        5.461074     
    5.460960        5.464165        5.467827        5.482345     
    5.480800        5.444060        5.389590        3.073848     
    2.576702        2.135893        1.762124        1.465551     
    1.254352        1.134689        1.110599        1.183384     
    1.351107        1.608511        1.947956        2.360005     
    2.833480        3.355685        3.914271        4.499113     
    5.101151        5.705158        6.290882        6.838761     
    7.336321        7.775942        8.149046        8.445510     
    8.656457        8.775563        8.798943        8.725895     
    8.558551        8.301624        7.962278        7.550040     
    7.077480        6.557658        5.999334        5.409853     
    4.802421        4.198480        3.617314        4.516799     
    4.427465        4.385806        4.384535        4.385795     
    4.387158        4.392369        4.398901        4.395643     
    4.395961        4.399322        4.403901        4.411966     
    4.460141        4.555192        4.762545        4.720707     
    5.321014        5.408508        5.444941        5.473114     
    5.467560        5.456035        5.474282        5.479796     
    5.502449        5.470551        5.431440        5.347976     
    5.306217        5.388505        5.501554        5.499234     
    5.481541        5.474091        5.452724        5.480350     
    5.355522        5.274988        4.779700        4.537270     
    4.448770        4.395745        4.356209        4.360180     
    4.366096        4.382561        4.396593        4.371502     
    4.377223        4.380339        4.428230        4.488154     
    4.583233        4.730802        4.825859        4.808087     
    4.287494        3.787221        3.314637        2.878821     
    2.490715        2.160760        1.898252        1.711240     
    1.605839        1.585291        1.649580        1.795951     
    2.019796        2.314496        2.671648        3.082075     
    3.538077        4.033588        4.559085        5.096965     
    5.625379        6.127910        6.598392        7.031952     
    7.419365        7.748912        8.010717        8.197151     
    8.302714        8.324066        8.260716        8.114856     
    7.891230        7.597262        7.242272        6.832902     
    6.372788        5.869565        5.341749        6.792097     
    7.126073        7.410709        7.638405        7.801404     
    7.894015        7.912782        7.857010        7.728505     
    7.531452        7.271747        6.957605        6.599873     
    6.207342        5.781929        5.324876        4.848597     
    4.374577        3.922782        3.504166        3.124007     
    2.787214        2.500724        2.272344        2.108701     
    2.015120        1.995287        2.050436        2.179076     
    2.376863        2.637225        2.952242        3.312888     
    3.709431        4.134167        4.582790        5.050184     
    5.524545        5.984802        6.410659        5.506746     
    5.528561        5.527382        5.491467        5.494575     
    5.494715        5.490478        5.463561        5.386361     
    5.315396        5.219090        5.255591        5.353270     
    5.416264        4.885543        4.793696        4.672887     
    4.530425        4.441573        4.395347        4.349344     
    4.379358        4.381211        4.368006        4.329159     
    4.360975        4.401862        4.484283        4.734531     
    4.838403        5.239648        4.819048        4.414354     
    4.031333        3.672125        3.340622        3.044389     
    2.791567        2.589992        2.446573        2.366206     
    2.351362        2.402079        2.515991        2.688995     
    2.915472        3.188640        3.502335        3.853329     
    4.240035        4.656137        5.083873        5.499403     
    5.886621        6.243128        6.570465        6.864277     
    7.115780        7.316476        7.459698        7.540669     
    7.556592        7.506950        7.393755        7.221405     
    6.996949        6.727434        6.414980        6.057310     
    5.660137        5.312117        5.394458        5.425153     
    5.449406        5.527057        5.562127        5.510662     
    5.505125        5.522940        5.518245        5.417759     
    5.387191        5.350196        5.268828        5.157589     
    5.194627        4.856048        4.701880        4.567395     
    4.484427        4.358726        4.355210        4.361777     
    4.343040        4.329822        4.436926        4.508592     
    4.679979        4.790203        4.504820        4.145700     
    3.819618        3.527513        3.269659        3.049865     
    2.873749        2.746866        2.673833        2.657648     
    2.699260        2.797641        2.949443        3.149112     
    3.389973        3.664444        3.965277        4.289673     
    4.638124        5.008967        5.390510        5.759891     
    6.095530        6.389696        6.644423        6.861115     
    7.035703        7.161788        7.233898        7.248908     
    7.206295        7.107614        6.956226        6.757416     
    6.518779        6.249475        5.953821        5.627496     
    5.267821        4.886835        4.690873        4.848556     
    5.096085        5.308677        5.389050        5.428658     
    5.506914        5.551352        5.531702        5.562306     
    5.558438        5.540479        5.467734        5.439267     
    5.357228        5.140781        4.918028        4.826284     
    4.654360        4.621137        4.512395        4.353244     
    4.315836        4.312613        4.337998        4.328053     
    4.305064        4.289880        4.315753        4.454454     
    4.564920        4.940353        4.893206        4.763812     
    4.660549        4.552746        4.453062        4.399328     
    4.307065        4.265696        4.306944        4.283663     
    4.258821        4.265352        4.351922        4.397703     
    4.479176        4.539981        4.638918        4.802801     
    4.902741        5.031214        5.274166        5.334906     
    5.438008        5.506812        5.539776        5.559219     
    5.604756        5.585471        5.508015        5.480490     
    5.489577        5.392677        5.328283        5.076960     
    5.506349        5.825920        6.105389        6.345733     
    6.551694        6.723332        6.855907        6.943631     
    6.982312        6.970341        6.908308        6.798292     
    6.643963        6.451816        6.230787        5.986807     
    5.716413        5.411690        5.075568        4.726779     
    4.390646        4.084495        3.811853        3.570305     
    3.360389        3.186103        3.052313        2.963810     
    2.924136        2.934959        2.996257        3.106202     
    3.260736        3.454153        3.679749        3.930661     
    4.203324        4.499732        4.822020        5.163779     
    4.622421        4.591201        4.512727        4.422941     
    4.343408        4.300559        4.243092        4.232488     
    4.270661        4.351551        4.400856        4.493567     
    4.609307        4.792651        4.858318        4.958467     
    4.979919        5.003384        5.269146        5.350342     
    5.460366        5.549156        5.644068        5.596541     
    5.589512        5.544220        5.507656        5.474844     
    5.391165        5.279411        5.222379        4.967344     
    4.910231        4.867333        4.738732        4.673775     
    4.306791        4.050037        3.823733        3.625378     
    3.456477        3.320734        3.222504        3.165734     
    3.152697        3.184065        3.259148        3.375348     
    3.528180        3.711659        3.919669        4.147696     
    4.397341        4.673517        4.976048        5.291554     
    5.594910        5.864302        6.093669        6.288538     
    6.453519        6.587186        6.684520        6.740504     
    6.752415        6.720163        6.644736        6.528203     
    6.375490        6.194747        5.993820        5.771690     
    5.518815        5.229519        4.914778        4.601147     
    4.358784        4.296860        4.204453        4.196963     
    4.222541        4.250381        4.365842        4.430230     
    4.598300        4.722125        4.847033        4.925977     
    5.021743        5.044608        5.223772        5.283244     
    5.423258        5.526133        5.617314        5.669205     
    5.592944        5.647751        5.576828        5.582747     
    5.548021        5.515034        5.431749        5.355783     
    5.220827        5.000336        4.949330        4.924787     
    4.816494        4.747702        4.587910        4.444993     
    4.035045        3.849530        3.688430        3.554555     
    3.451400        3.382908        3.351887        3.359671     
    3.406176        3.490080        3.608190        3.755478     
    3.926301        4.116066        4.324800        4.558345     
    4.821252        5.107162        5.394342        5.656594     
    5.879754        6.066008        6.222870        6.353491     
    6.455130        6.522872        6.552888        6.544266     
    6.497320        6.413024        6.294201        6.147597     
    5.981750        5.799889        5.593262        5.350722     
    5.073307        4.780737        4.500395        4.252014     
    5.183011        5.176211        5.074564        4.966720     
    4.887781        4.777605        4.615861        4.478017     
    4.381592        4.307786        4.224222        4.133588     
    4.219458        4.181979        4.298703        4.390052     
    4.465049        4.529603        4.658151        4.748698     
    4.919394        4.997106        5.090720        5.216646     
    5.304376        5.375968        5.494874        5.706622     
    5.633933        5.616922        5.594818        5.500786     
    5.422408        5.284741        5.217362        5.216207     
    5.441624        5.636859        5.804848        5.957024     
    6.094883        6.211550        6.300273        6.357376     
    6.381430        6.371623        6.328098        6.253492     
    6.152648        6.028926        5.879907        5.696317     
    5.480550        5.208339        4.934982        4.694366     
    4.473548        4.278325        4.103687        3.946139     
    3.807010        3.690834        3.602509        3.545672     
    3.522157        3.532630        3.576786        3.652499     
    3.756376        3.885421        4.037335        4.214777     
    4.425843        4.661616        4.939284        5.104713     
    5.060777        5.002232        4.829446        4.649004     
    4.579995        4.504390        4.425667        4.301753     
    4.230013        4.163807        4.270144        4.116634     
    4.141117        4.230457        4.325575        4.403265     
    4.545821        4.695920        4.982062        5.030064     
    5.163815        5.136127        5.206895        5.499629     
    5.550945        5.602319        5.638835        5.677313     
    5.692317        5.673984        5.568572        5.445697     
    5.322049        5.227369        5.550745        5.718606     
    5.862592        5.981424        6.079645        6.156737     
    6.208617        6.232003        6.226147        6.190972     
    6.127188        6.036677        5.924792        5.799719     
    5.663184        5.504269        5.326587        4.557483     
    4.369017        4.198349        4.052645        3.928956     
    3.826673        3.747649        3.694859        3.670862     
    3.676477        3.711507        3.775064        3.864630     
    3.975769        4.104210        4.247769        4.409521     
    4.597620        4.793666        5.065719        5.101681     
    5.130479        5.144522        5.291537        5.487878     
    5.576973        5.655465        5.691137        5.723415     
    5.745893        5.667000        5.596285        5.518297     
    5.413473        5.241906        5.155444        5.153481     
    5.110801        5.012471        4.913423        4.734476     
    4.559625        4.462452        4.350781        4.193231     
    4.137893        4.103040        4.169228        4.070149     
    4.079703        3.839405        3.897500        3.976568     
    4.075068        4.193112        4.334743        4.488593     
    4.761933        5.128077        5.401904        5.543451     
    5.669258        5.784169        5.888771        5.977194     
    6.044102        6.086864        6.104475        6.096384     
    6.062796        6.006294        5.930684        5.837707     
    5.722655        5.587283        5.357094        4.997143     
    4.681239        4.519217        4.367655        4.234722     
    4.116373        4.016437        3.929690        3.858793     
    3.815280        3.797534        3.805836        4.251895     
    4.349774        4.437867        4.541519        4.658810     
    4.957066        5.872804        5.800411        5.712409     
    5.598880        5.479415        5.350675        5.268889     
    5.202122        5.122025        5.016816        4.825765     
    4.847638        4.597606        4.653021        4.458631     
    4.331905        4.361846        4.242180        4.153151     
    4.065534        3.966832        4.036021        3.932328     
    3.917113        3.912742        4.016810        3.934921     
    3.974439        4.053284        4.030424        4.112519     
    4.186870        4.240773        4.305188        4.427252     
    4.473330        4.753926        4.869110        5.035321     
    5.124564        5.201837        5.350410        5.388569     
    5.450387        5.560841        5.664896        5.763431     
    5.843414        5.910097        5.962245        5.988954     
    5.992761        5.971091        5.929711        5.724844     
    5.654401        5.631508        5.789280        5.762457     
    5.746540        5.742474        5.668264        5.572490     
    5.243314        4.656490        4.017868        4.096032     
    4.267158        5.146885        5.433666        5.570567     
    5.473829        5.296601        5.327723        5.081000     
    5.097666        4.983904        4.826663        4.677445     
    4.560491        4.398683        4.156010        4.147426     
    4.017066        4.723290        4.923137        5.017773     
    5.140433        5.279271        5.413445        5.475721     
    5.606537        5.699008        5.742942        5.810643     
    5.856492        5.892377        5.833317        5.902924     
    5.890902        5.811725        5.848897        5.772568     
    5.738388        5.664131        5.662317        5.705275     
    5.184542        5.231252        4.770548        4.889788     
    5.030510        5.182664        5.387421        4.946376     
    4.072316        5.222923        5.343851        5.166676     
    5.824645        4.820843        4.954868    
    2.203079        3.770763        5.329863        6.841979     
    8.269866        9.578389        10.73531        11.71215     
    12.48485        13.03439        13.34723        13.41568     
    13.23804        12.81869        12.16797        11.30188     
    10.24175        9.013698        7.647956        6.178141     
    4.640466        3.072772        1.513682       1.5655238E-03 
   -1.426321       -2.734844       -3.891765       -4.868608     
   -5.641310       -6.190842       -6.503689       -6.572133     
   -6.394494       -5.975149       -5.324424       -4.458337     
   -3.398209       -2.170152      -0.8044107       0.6654040     
    3.361098        3.361874        3.363158        3.364946     
    3.367214        3.369951        3.373149        3.376763     
    3.380776        3.385160        3.389898        3.394942     
    3.400279        3.405859        3.411654        3.417638     
    3.423761        3.430001        3.436324        3.442674     
    3.449021        3.455327        3.461549        3.467644     
    3.473573        3.479285        3.484745        3.489905     
    3.494712        3.499153        3.503171        3.506734     
    3.509828        3.512407        3.514462        3.515978     
    3.516943        3.517347        3.517210        3.516519     
    3.515295        3.513541        3.511279        3.508523     
    3.505303        3.501626        3.497508        3.492986     
    3.488046        3.482707        3.477128        3.471478     
    3.465747        3.459959        3.454147        3.448334     
    3.442536        3.436798        3.431147        3.425621     