 VARIABLES="X" "Y" "U<sub>x" "V<sub>y" "Pressure" "Temprature"
 Zone i=           31 ,j=           31 ,k=1,f=point
    0.000000000000000         0.000000000000000         0.000000000000000      
    0.000000000000000         0.000000000000000         500.0000000000000     
   3.3333333333333333E-002    0.000000000000000         0.000000000000000      
   1.9735022494612944E-006  -1.5787890704805637E-004    500.0000000000000     
   6.6666666666666666E-002    0.000000000000000       -9.8667322798881333E-007 
   3.3142444621853124E-007  -3.3094426823309140E-004    500.0000000000000     
   0.1000000000000000         0.000000000000000       -2.0680217076876031E-006 
   6.8971845309645806E-007  -3.2461721068481229E-004    500.0000000000000     
   0.1333333333333333         0.000000000000000         0.000000000000000      
   6.7673672433690898E-007  -6.6401838564904896E-005    500.0000000000000     
   0.1666666666666667         0.000000000000000         0.000000000000000      
    0.000000000000000        4.4259998446868350E-004    500.0000000000000     
   0.2000000000000000         0.000000000000000         0.000000000000000      
    0.000000000000000        1.1891575750695405E-003    500.0000000000000     
   0.2333333333333333         0.000000000000000         0.000000000000000      
    0.000000000000000        2.1586230077499276E-003    500.0000000000000     
   0.2666666666666667         0.000000000000000         0.000000000000000      
    0.000000000000000        3.3340907181453189E-003    500.0000000000000     
   0.3000000000000000         0.000000000000000         0.000000000000000      
    0.000000000000000        4.6967498921812404E-003    500.0000000000000     
   0.3333333333333333         0.000000000000000         0.000000000000000      
    0.000000000000000        6.2265134006166539E-003    500.0000000000000     
   0.3666666666666666         0.000000000000000         0.000000000000000      
    0.000000000000000        7.9016902896638253E-003    500.0000000000000     
   0.4000000000000000         0.000000000000000         0.000000000000000      
    0.000000000000000        9.6990005438172995E-003    500.0000000000000     
   0.4333333333333334         0.000000000000000         0.000000000000000      
    0.000000000000000        1.1593509928257167E-002    500.0000000000000     
   0.4666666666666667         0.000000000000000         0.000000000000000      
    0.000000000000000        1.3558682741677762E-002    500.0000000000000     
   0.5000000000000000         0.000000000000000         0.000000000000000      
    0.000000000000000        1.5566486020022733E-002    500.0000000000000     
   0.5333333333333333         0.000000000000000         0.000000000000000      
    0.000000000000000        1.7587570973022069E-002    500.0000000000000     
   0.5666666666666667         0.000000000000000         0.000000000000000      
    0.000000000000000        1.9591529656671668E-002    500.0000000000000     
   0.6000000000000000         0.000000000000000         0.000000000000000      
    0.000000000000000        2.1547234775079888E-002    500.0000000000000     
   0.6333333333333333         0.000000000000000         0.000000000000000      
    0.000000000000000        2.3423262247233491E-002    500.0000000000000     
   0.6666666666666666         0.000000000000000         0.000000000000000      
    0.000000000000000        2.5188403089294441E-002    500.0000000000000     
   0.7000000000000000         0.000000000000000         0.000000000000000      
    0.000000000000000        2.6812230214267430E-002    500.0000000000000     
   0.7333333333333333         0.000000000000000         0.000000000000000      
    0.000000000000000        2.8265766369324007E-002    500.0000000000000     
   0.7666666666666667         0.000000000000000         0.000000000000000      
    0.000000000000000        2.9522057552253161E-002    500.0000000000000     
   0.8000000000000000         0.000000000000000         0.000000000000000      
    0.000000000000000        3.0557087812155076E-002    500.0000000000000     
   0.8333333333333334         0.000000000000000         0.000000000000000      
    0.000000000000000        3.1349893279200014E-002    500.0000000000000     
   0.8666666666666667         0.000000000000000         0.000000000000000      
    0.000000000000000        3.1885314159654767E-002    500.0000000000000     
   0.9000000000000000         0.000000000000000         0.000000000000000      
    0.000000000000000        3.2151147059688114E-002    500.0000000000000     
   0.9333333333333334         0.000000000000000         0.000000000000000      
    0.000000000000000        3.2151698921083452E-002    500.0000000000000     
   0.9666666666666667         0.000000000000000         0.000000000000000      
    0.000000000000000        3.1843800071454653E-002    500.0000000000000     
    1.000000000000000         0.000000000000000         0.000000000000000      
    0.000000000000000        3.1453467573848426E-002    500.0000000000000     
    0.000000000000000        3.3333333333333333E-002   3.2892421549527118E-007 
  -3.2152664030789143E-007   1.5795772258615610E-004    100.0000000000000     
   3.3333333333333333E-002   3.3333333333333333E-002  -1.6168760298159278E-004 
   1.6188776505770324E-004   2.0633734511984428E-006    335.4381754089452     
   6.6666666666666666E-002   3.3333333333333333E-002  -7.6723476988309629E-004 
   3.3461334533907601E-004  -1.2229816669664826E-005    397.9773706103845     
   0.1000000000000000        3.3333333333333333E-002  -1.6388404417085893E-003 
   4.3622285703654947E-004   9.7609585153043147E-005    429.5070977566932     
   0.1333333333333333        3.3333333333333333E-002  -2.6776977808865214E-003 
   4.8248619119845693E-004   4.1272392801477466E-004    446.7232875829817     
   0.1666666666666667        3.3333333333333333E-002  -3.7809949678164262E-003 
   4.9641658624480765E-004   9.3731261128001070E-004    456.5737645158107     
   0.2000000000000000        3.3333333333333333E-002  -4.8911831925821936E-003 
   4.8746007253618187E-004   1.6778516742331512E-003    461.9527459970900     
   0.2333333333333333        3.3333333333333333E-002  -5.9649456338435420E-003 
   4.6358060446108714E-004   2.6247394370985866E-003    464.4404650454201     
   0.2666666666666667        3.3333333333333333E-002  -6.9734440763700289E-003 
   4.2888627243701702E-004   3.7661236532253819E-003    465.0115090516493     
   0.3000000000000000        3.3333333333333333E-002  -7.8946541644892895E-003 
   3.8602612924291556E-004   5.0859327661470430E-003    464.3362364911271     
   0.3333333333333333        3.3333333333333333E-002  -8.7115618184206295E-003 
   3.3653328389201338E-004   6.5658886967164586E-003    462.8677124694660     
   0.3666666666666666        3.3333333333333333E-002  -9.4101616334700960E-003 
   2.8150026835217605E-004   8.1854935616223999E-003    460.9317572480212     
   0.4000000000000000        3.3333333333333333E-002  -9.9786812173576558E-003 
   2.2172081259559155E-004   9.9223537884605018E-003    458.7464715375332     
   0.4333333333333334        3.3333333333333333E-002  -1.0407121576944386E-002 
   1.5790065780367746E-004   1.1752295951035597E-002    456.4562473594831     
   0.4666666666666667        3.3333333333333333E-002  -1.0687128501668204E-002 
   9.0736831197601748E-005   1.3649529059506288E-002    454.1500816987495     
   0.5000000000000000        3.3333333333333333E-002  -1.0812050709014661E-002 
   2.0993821058679173E-005   1.5586823470978445E-002    451.8790388540414     
   0.5333333333333333        3.3333333333333333E-002  -1.0777133962422030E-002 
  -5.0450321133194221E-005   1.7535745079910875E-002    449.6677037262162     
   0.5666666666666667        3.3333333333333333E-002  -1.0579815810849054E-002 
  -1.2256563337942553E-004   1.9466950698823093E-002    447.5218912832984     
   0.6000000000000000        3.3333333333333333E-002  -1.0220096183596457E-002 
  -1.9414284087289026E-004   2.1350557855373181E-002    445.4323030480283     
   0.6333333333333333        3.3333333333333333E-002  -9.7009707005118895E-003 
  -2.6376808359858373E-004   2.3156591714706212E-002    443.3744095565921     
   0.6666666666666666        3.3333333333333333E-002  -9.0289081014686603E-003 
  -3.2980680024875613E-004   2.4855525192669023E-002    441.3044107024429     
   0.7000000000000000        3.3333333333333333E-002  -8.2144187158680153E-003 
  -3.9035899390727218E-004   2.6418873428722761E-002    439.1491215416314     
   0.7333333333333333        3.3333333333333333E-002  -7.2726328047267403E-003 
  -4.4323175288387437E-004   2.7819977002232217E-002    436.7884900946331     
   0.7666666666666667        3.3333333333333333E-002  -6.2243688429582320E-003 
  -4.8573880819898559E-004   2.9034577262775661E-002    434.0177654826704     
   0.8000000000000000        3.3333333333333333E-002  -5.0967587600469089E-003 
  -5.1463379663197275E-004   3.0042487979518334E-002    430.4852409337644     
   0.8333333333333334        3.3333333333333333E-002  -3.9270841319382918E-003 
  -5.2518739776430607E-004   3.0826727820211949E-002    425.5382874849922     
   0.8666666666666667        3.3333333333333333E-002  -2.7608486362472608E-003 
  -5.1168485148446203E-004   3.1381329046384826E-002    417.9245395658297     
   0.9000000000000000        3.3333333333333333E-002  -1.6716792610450442E-003 
  -4.6303042958872973E-004   3.1696585101624548E-002    404.9741930895812     
   0.9333333333333334        3.3333333333333333E-002  -7.2712419581917240E-004 
  -3.7392526680487100E-004   3.1813144434313094E-002    379.8670624469789     
   0.9666666666666667        3.3333333333333333E-002  -1.2313907747329324E-004 
  -1.9855480148311825E-004   3.1693378997555213E-002    325.7180930353359     
    1.000000000000000        3.3333333333333333E-002   1.3186932911898514E-004 
   2.6293004253779851E-004   3.1637338120514467E-002    100.0000000000000     
    0.000000000000000        6.6666666666666666E-002  -9.3934693174294185E-007 
   1.5984622641239151E-006   3.3943509902803828E-004    100.0000000000000     
   3.3333333333333333E-002   6.6666666666666666E-002  -3.3809478701085540E-004 
   7.7141111450781128E-004   1.5784072319959998E-005    225.0653642771748     
   6.6666666666666666E-002   6.6666666666666666E-002  -1.4061014688090975E-003 
   1.3893448582608737E-003   2.5809956872577420E-006    319.3351743292614     
   0.1000000000000000        6.6666666666666666E-002  -2.8291091172321578E-003 
   1.7782666042588323E-003   1.1262251410853311E-004    369.5671430652378     
   0.1333333333333333        6.6666666666666666E-002  -4.5031617794308613E-003 
   1.9727860664173359E-003   4.4454945838986353E-004    399.4836689379080     
   0.1666666666666667        6.6666666666666666E-002  -6.2783688262223443E-003 
   2.0342836954329881E-003   9.7926482214945906E-004    417.0454824355953     
   0.2000000000000000        6.6666666666666666E-002  -8.0692248352751926E-003 
   2.0041914084119919E-003   1.7262228913206786E-003    426.6336391831002     
   0.2333333333333333        6.6666666666666666E-002  -9.8058638160238958E-003 
   1.9102915743618976E-003   2.6747330443542337E-003    430.8460989502532     
   0.2666666666666667        6.6666666666666666E-002  -1.1440310982315920E-002 
   1.7699820610957600E-003   3.8146268156903159E-003    431.5231562877098     
   0.3000000000000000        6.6666666666666666E-002  -1.2934994058986064E-002 
   1.5940827203977429E-003   5.1303700794569588E-003    429.8130602782142     
   0.3333333333333333        6.6666666666666666E-002  -1.4260924384988466E-002 
   1.3897180083214903E-003   6.6045410895946297E-003    426.6256637307501     
   0.3666666666666666        6.6666666666666666E-002  -1.5394305519155001E-002 
   1.1616755054463014E-003   8.2170567080883470E-003    422.5627145079671     
   0.4000000000000000        6.6666666666666666E-002  -1.6315452717863971E-002 
   9.1363946303723675E-004   9.9459301277478908E-003    418.0505207086309     
   0.4333333333333334        6.6666666666666666E-002  -1.7007847350126844E-002 
   6.4876051018504868E-004   1.1767261634354582E-002    413.3613020610749     
   0.4666666666666667        6.6666666666666666E-002  -1.7457923257128801E-002 
   3.7012712313344391E-004   1.3655501764172000E-002    408.6652114207598     
   0.5000000000000000        6.6666666666666666E-002  -1.7655069656630690E-002 
   8.1052910965481511E-005   1.5583631568710189E-002    404.0584539904828     
   0.5333333333333333        6.6666666666666666E-002  -1.7591914243804893E-002 
  -2.1470346302854073E-004   1.7523424351032969E-002    399.5878620733485     
   0.5666666666666667        6.6666666666666666E-002  -1.7264768676052231E-002 
  -5.1277485346045836E-004   1.9445750549981225E-002    395.2655698990616     
   0.6000000000000000        6.6666666666666666E-002  -1.6674215756858957E-002 
  -8.0805507901886590E-004   2.1320962205822552E-002    391.0765496021771     
   0.6333333333333333        6.6666666666666666E-002  -1.5825816214740270E-002 
  -1.0945988000467563E-003   2.3119347088062622E-002    386.9790816002532     
   0.6666666666666666        6.6666666666666666E-002  -1.4730892495729377E-002 
  -1.3655040457352904E-003   2.4811695496326308E-002    382.8974459176018     
   0.7000000000000000        6.6666666666666666E-002  -1.3407482432892403E-002 
  -1.6128005144355846E-003   2.6369896972797652E-002    378.7068562846345     
   0.7333333333333333        6.6666666666666666E-002  -1.1881321993363159E-002 
  -1.8271141977565899E-003   2.7767797387128475E-002    374.1994105712307     
   0.7666666666666667        6.6666666666666666E-002  -1.0187495788958360E-002 
  -1.9973186724846575E-003   2.8981752336125269E-002    369.0356651728674     
   0.8000000000000000        6.6666666666666666E-002  -8.3716866026532985E-003 
  -2.1092065085172194E-003   2.9992424675121764E-002    362.6194475543339     
   0.8333333333333334        6.6666666666666666E-002  -6.4950923206018576E-003 
  -2.1445574017161331E-003   3.0783865918747239E-002    353.9225254191325     
   0.8666666666666667        6.6666666666666666E-002  -4.6333847194879475E-003 
  -2.0764785240498752E-003   3.1351205601393040E-002    340.9932836372825     
   0.9000000000000000        6.6666666666666666E-002  -2.9001284243213325E-003 
  -1.8708866287779928E-003   3.1685745592508453E-002    319.9440158148086     
   0.9333333333333334        6.6666666666666666E-002  -1.4095616873760471E-003 
  -1.4668031241084111E-003   3.1829323268527263E-002    283.0910319852936     
   0.9666666666666667        6.6666666666666666E-002  -4.2490973224213461E-004 
  -8.0976674222176101E-004   3.1734852161908113E-002    206.1271589673581     
    1.000000000000000        6.6666666666666666E-002   1.3164202367485685E-004 
   2.6333727649486931E-004   3.1714785886848902E-002    100.0000000000000     
    0.000000000000000        0.1000000000000000       -7.0676102615702850E-007 
   2.1220838084845085E-006   3.4888087842750173E-004    100.0000000000000     
   3.3333333333333333E-002   0.1000000000000000       -4.5586468105993647E-004 
   1.6706602036546626E-003  -9.5071968611928808E-005    190.9181232640947     
   6.6666666666666666E-002   0.1000000000000000       -1.8629077375745678E-003 
   2.8346665592218481E-003  -1.1177319901101686E-004    267.8436152721937     
   0.1000000000000000        0.1000000000000000       -3.6769179912976859E-003 
   3.5566892112448068E-003  -3.0663820998497163E-006    324.1050470843443     
   0.1333333333333333        0.1000000000000000       -5.7811289572613804E-003 
   3.9299826470164511E-003   3.4322276744890278E-004    360.3600144203606     
   0.1666666666666667        0.1000000000000000       -7.9998153552373070E-003 
   4.0528226376225504E-003   8.8974663963626134E-004    382.5452460451326     
   0.2000000000000000        0.1000000000000000       -1.0235573775319261E-002 
   3.9975620568258926E-003   1.6481445953686134E-003    394.3689847096059     
   0.2333333333333333        0.1000000000000000       -1.2404567972883427E-002 
   3.8148904301744898E-003   2.6059881760937837E-003    399.5788175004735     
   0.2666666666666667        0.1000000000000000       -1.4446830097112173E-002 
   3.5374276792293591E-003   3.7536384835573323E-003    399.6876079432415     
   0.3000000000000000        0.1000000000000000       -1.6315349463291818E-002 
   3.1871959606808091E-003   5.0762960764808322E-003    396.6419999583517     
   0.3333333333333333        0.1000000000000000       -1.7972913992980535E-002 
   2.7784001279524055E-003   6.5567606233442313E-003    391.5224478618709     
   0.3666666666666666        0.1000000000000000       -1.9389361284893141E-002 
   2.3213461757069934E-003   8.1754363724075747E-003    385.2477394005613     
   0.4000000000000000        0.1000000000000000       -2.0539631923259700E-002 
   1.8237511253899651E-003   9.9105411124322147E-003    378.3912123075864     
   0.4333333333333334        0.1000000000000000       -2.1402961822382226E-002 
   1.2923094767980324E-003   1.1738367245453843E-002    371.3464588268554     
   0.4666666666666667        0.1000000000000000       -2.1962393791298999E-002 
   7.3347159701169732E-004   1.3633475196449987E-002    364.3487640671217     
   0.5000000000000000        0.1000000000000000       -2.2204810784825533E-002 
   1.5408082303842985E-004   1.5568918407250743E-002    357.5327075159318     
   0.5333333333333333        0.1000000000000000       -2.2121222829529458E-002 
  -4.3817865653829119E-004   1.7516505602986440E-002    350.9628388067461     
   0.5666666666666667        0.1000000000000000       -2.1707306333682112E-002 
  -1.0344298620959052E-003   1.9447118882280418E-002    344.6568464731979     
   0.6000000000000000        0.1000000000000000       -2.0964142011404899E-002 
  -1.6243276239443045E-003   2.1331096921707669E-002    338.5973612424139     
   0.6333333333333333        0.1000000000000000       -1.9899090935977151E-002 
  -2.1958211215730885E-003   2.3138720100197633E-002    332.7337073764306     
   0.6666666666666666        0.1000000000000000       -1.8526851639170640E-002 
  -2.7349496873249886E-003   2.4840742532313161E-002    326.9754198226402     
   0.7000000000000000        0.1000000000000000       -1.6870550887086572E-002 
  -3.2255043014592041E-003   2.6409138860316778E-002    321.1705909274838     
   0.7333333333333333        0.1000000000000000       -1.4963262671676974E-002 
  -3.6486206797831178E-003   2.7817681799880083E-002    315.0844841366074     
   0.7666666666666667        0.1000000000000000       -1.2849279538343578E-002 
  -3.9817188286207653E-003   2.9043266931196066E-002    308.3075624675462     
   0.8000000000000000        0.1000000000000000       -1.0587121480267338E-002 
  -4.1969239237059450E-003   3.0065913725860125E-002    300.2301491204799     
   0.8333333333333334        0.1000000000000000       -8.2504475498469676E-003 
  -4.2583106094316028E-003   3.0872281154846956E-002    289.6706730561876     
   0.8666666666666667        0.1000000000000000       -5.9379397892757313E-003 
  -4.1157428138232800E-003   3.1451056930020087E-002    274.8793672947197     
   0.9000000000000000        0.1000000000000000       -3.7655042728453807E-003 
  -3.7041058577659729E-003   3.1809974939748596E-002    252.4501995490927     
   0.9333333333333334        0.1000000000000000       -1.9135351039516965E-003 
  -2.9203144294001546E-003   3.1935120829534022E-002    216.4295551402148     
   0.9666666666666667        0.1000000000000000       -5.2454673420220302E-004 
  -1.6805039084692459E-003   3.1909704247338230E-002    164.5997422717275     
    1.000000000000000        0.1000000000000000         0.000000000000000      
    0.000000000000000        3.1584720673123179E-002    100.0000000000000     
    0.000000000000000        0.1333333333333333         0.000000000000000      
    0.000000000000000        1.1076295030135433E-004    100.0000000000000     
   3.3333333333333333E-002   0.1333333333333333       -5.3296456197698917E-004 
   2.7908905523134470E-003  -4.1968087764839978E-004    172.9045993429706     
   6.6666666666666666E-002   0.1333333333333333       -2.1837564453512032E-003 
   4.6109420975227319E-003  -4.5647142126236886E-004    238.7065991540637     
   0.1000000000000000        0.1333333333333333       -4.2945037515963978E-003 
   5.7124193025066836E-003  -3.6041277561334764E-004    291.3696576739521     
   0.1333333333333333        0.1333333333333333       -6.7229291148879176E-003 
   6.2824686938168818E-003  -7.3755508038622038E-006    329.0413255683871     
   0.1666666666666667        0.1333333333333333       -9.2694729117253245E-003 
   6.4698538920307256E-003   5.5234853784369691E-004    352.8846930093635     
   0.2000000000000000        0.1333333333333333       -1.1829190119079789E-002 
   6.3815291609819729E-003   1.3294791222986002E-003    365.8319999400218     
   0.2333333333333333        0.1333333333333333       -1.4308334634957554E-002 
   6.0916647517925250E-003   2.3093891024640310E-003    370.2002636456741     
   0.2666666666666667        0.1333333333333333       -1.6642688442709754E-002 
   5.6507085053818492E-003   3.4823517286419999E-003    369.6323778207383     
   0.3000000000000000        0.1333333333333333       -1.8777331916762573E-002 
   5.0917592993916299E-003   4.8322784973551022E-003    364.8599363954604     
   0.3333333333333333        0.1333333333333333       -2.0671205294038483E-002 
   4.4385733015190618E-003   6.3427135368028069E-003    357.8098544106759     
   0.3666666666666666        0.1333333333333333       -2.2289454400603346E-002 
   3.7073804512376025E-003   7.9935282773968830E-003    349.3663170329327     
   0.4000000000000000        0.1333333333333333       -2.3603836033829470E-002 
   2.9110455865341534E-003   9.7630207057556474E-003    340.3255704499126     
   0.4333333333333334        0.1333333333333333       -2.4590588659091205E-002 
   2.0605124645434246E-003   1.1627289251637297E-002    331.1483181234214     
   0.4666666666666667        0.1333333333333333       -2.5230426838852814E-002 
   1.1663130140955231E-003   1.3560704142571833E-002    322.1328149669230     
   0.5000000000000000        0.1333333333333333       -2.5508342578362389E-002 
   2.3952665265099395E-004   1.5536035343239026E-002    313.4412617985092     
   0.5333333333333333        0.1333333333333333       -2.5413965204133811E-002 
  -7.0747825889233465E-004   1.7524735874416185E-002    305.1497235609708     
   0.5666666666666667        0.1333333333333333       -2.4942166853017832E-002 
  -1.6604411783702725E-003   1.9497241133889717E-002    297.2784124399108     
   0.6000000000000000        0.1333333333333333       -2.4093921040414207E-002 
  -2.6027274805291061E-003   2.1423360994955780E-002    289.8080528251682     
   0.6333333333333333        0.1333333333333333       -2.2877389747738671E-002 
  -3.5149544940419404E-003   2.3272741816063276E-002    282.6859180156852     
   0.6666666666666666        0.1333333333333333       -2.1309117777042436E-002 
  -4.3745700514444879E-003   2.5015469211951805E-002    275.8175083370542     
   0.7000000000000000        0.1333333333333333       -1.9415484999302287E-002 
  -5.1555370148993803E-003   2.6622700247552093E-002    269.0596994411212     
   0.7333333333333333        0.1333333333333333       -1.7234136156977605E-002 
  -5.8272978147719716E-003   2.8067536027911302E-002    262.1568860391964     
   0.7666666666666667        0.1333333333333333       -1.4815963831554533E-002 
  -6.3541693321836354E-003   2.9325877099431619E-002    254.8119795191817     
   0.8000000000000000        0.1333333333333333       -1.2227157220375737E-002 
  -6.6919874284157741E-003   3.0376980948208565E-002    246.2879851183945     
   0.8333333333333334        0.1333333333333333       -9.5509920195046040E-003 
  -6.7856766303600186E-003   3.1206886945965805E-002    236.0609517687008     
   0.8666666666666667        0.1333333333333333       -6.8973862971529734E-003 
  -6.5611659605279435E-003   3.1799933485247005E-002    222.2337781720262     
   0.9000000000000000        0.1333333333333333       -4.3883126822871175E-003 
  -5.9193719701514094E-003   3.2168183695776495E-002    202.9016966224137     
   0.9333333333333334        0.1333333333333333       -2.2303880063933943E-003 
  -4.7228269109992988E-003   3.2268125166585337E-002    176.1020518559403     
   0.9666666666666667        0.1333333333333333       -5.5170166995308079E-004 
  -2.8200239678776336E-003   3.2227479346650288E-002    141.0587946664717     
    1.000000000000000        0.1333333333333333         0.000000000000000      
    0.000000000000000        3.1680465317994205E-002    100.0000000000000     
    0.000000000000000        0.1666666666666667         0.000000000000000      
    0.000000000000000       -3.8341774997672243E-004    100.0000000000000     
   3.3333333333333333E-002   0.1666666666666667       -5.9202788409854867E-004 
   4.0616053856097380E-003  -9.7581882288299226E-004    162.0157591024554     
   6.6666666666666666E-002   0.1666666666666667       -2.4327670467531393E-003 
   6.6243719281988177E-003  -1.0280093650966687E-003    219.6208715803676     
   0.1000000000000000        0.1666666666666667       -4.7855398170068226E-003 
   8.1431249630945172E-003  -9.4061549271273195E-004    267.8180564050520     
   0.1333333333333333        0.1666666666666667       -7.4833065919862659E-003 
   8.9211520487944545E-003  -5.7839138313619946E-004    304.0765329747810     
   0.1666666666666667        0.1666666666666667       -1.0302491453310299E-002 
   9.1713989784223803E-003  -3.9018695662795735E-007    327.6469579927047     
   0.2000000000000000        0.1666666666666667       -1.3128520420106142E-002 
   9.0402522518676452E-003   8.0414359996910023E-004    340.0219219114767     
   0.2333333333333333        0.1666666666666667       -1.5861964632398921E-002 
   8.6285234313027825E-003   1.8175351641831988E-003    343.7678449140485     
   0.2666666666666667        0.1666666666666667       -1.8431401468434749E-002 
   8.0035711308710442E-003   3.0302951777071698E-003    340.8117597031345     
   0.3000000000000000        0.1666666666666667       -2.0782151385392390E-002 
   7.2125134196984108E-003   4.4258532786487078E-003    334.7874526643284     
   0.3333333333333333        0.1666666666666667       -2.2866559929670925E-002 
   6.2870677521750552E-003   5.9857662457812738E-003    325.7415771531542     
   0.3666666666666666        0.1666666666666667       -2.4649106556807392E-002 
   5.2513753617795256E-003   7.6906684168966347E-003    315.4256826502862     
   0.4000000000000000        0.1666666666666667       -2.6098504197905457E-002 
   4.1233280420986838E-003   9.5181450832580502E-003    304.5073381842938     
   0.4333333333333334        0.1666666666666667       -2.7189190895017961E-002 
   2.9185568304426561E-003   1.1443945465554918E-002    293.5893967409862     
   0.4666666666666667        0.1666666666666667       -2.7899983745405019E-002 
   1.6520008108951534E-003   1.3441948467553535E-002    283.0095384429463     
   0.5000000000000000        0.1666666666666667       -2.8214146144532919E-002 
   3.3924137481302312E-004   1.5484359567617323E-002    272.9460242982303     
   0.5333333333333333        0.1666666666666667       -2.8119726032569008E-002 
  -1.0023220234036349E-003   1.7541955266850172E-002    263.4783834655976     
   0.5666666666666667        0.1666666666666667       -2.7610232856542950E-002 
  -2.3526020619301881E-003   1.9584369351839916E-002    254.6221806688304     
   0.6000000000000000        0.1666666666666667       -2.6685683662693801E-002 
  -3.6880841930638847E-003   2.1580443468895507E-002    246.3518981922020     
   0.6333333333333333        0.1666666666666667       -2.5353820284282541E-002 
  -4.9811877286061205E-003   2.3498760752458089E-002    238.6098949261744     
   0.6666666666666666        0.1666666666666667       -2.3631791107804018E-002 
  -6.1998424008617463E-003   2.5308067531988419E-002    231.3133469991493     
   0.7000000000000000        0.1666666666666667       -2.1547361437888421E-002 
  -7.3066338042641656E-003   2.6978402793765417E-002    224.3121300236230     
   0.7333333333333333        0.1666666666666667       -1.9141631668338922E-002 
  -8.2584642704598768E-003   2.8480926629851893E-002    217.4607855309290     
   0.7666666666666667        0.1666666666666667       -1.6469019946412797E-002 
  -9.0038255416136654E-003   2.9790871476749661E-002    210.2440695937563     
   0.8000000000000000        0.1666666666666667       -1.3604276030198165E-002 
  -9.4823849399400216E-003   3.0884979970026667E-002    202.8681947949141     
   0.8333333333333334        0.1666666666666667       -1.0635941115150496E-002 
  -9.6175399336984289E-003   3.1748228736126108E-002    193.8797473683592     
   0.8666666666666667        0.1666666666666667       -7.6857772051450914E-003 
  -9.3102353984892746E-003   3.2362387553876812E-002    182.6902087685656     
   0.9000000000000000        0.1666666666666667       -4.8860846850417574E-003 
  -8.4269953724053007E-003   3.2739659888828626E-002    168.2562722692413     
   0.9333333333333334        0.1666666666666667       -2.4685892098993659E-003 
  -6.7811925021127126E-003   3.2826618833461038E-002    149.5768042267433     
   0.9666666666666667        0.1666666666666667       -5.9643388656378923E-004 
  -4.1129145724664558E-003   3.2766776948468301E-002    126.4853176945077     
    1.000000000000000        0.1666666666666667         0.000000000000000      