 VARIABLES="X" "Y" "U<sub>x" "V<sub>y" "Pressure" "Temprature"
 Zone i=           31 ,j=           31 ,k=1,f=point
    0.000000000000000         0.000000000000000         0.000000000000000      
    0.000000000000000         0.000000000000000         100.0000000000000     
   3.3333333333333333E-002    0.000000000000000         0.000000000000000      
   1.9735019025609050E-006  -1.5787887930342396E-004    100.0000000000000     
   6.6666666666666666E-002    0.000000000000000       -9.8667305450870098E-007 
   3.3142438802971796E-007  -3.3094543568047328E-004    100.0000000000000     
   0.1000000000000000         0.000000000000000       -2.0680290030842635E-006 
   6.8972088603519665E-007  -3.2461654536058732E-004    100.0000000000000     
   0.1333333333333333         0.000000000000000         0.000000000000000      
   6.7673533738327223E-007  -6.6401346336092133E-005    100.0000000000000     
   0.1666666666666667         0.000000000000000         0.000000000000000      
    0.000000000000000        4.4259988243209008E-004    100.0000000000000     
   0.2000000000000000         0.000000000000000         0.000000000000000      
    0.000000000000000        1.1891575018395364E-003    100.0000000000000     
   0.2333333333333333         0.000000000000000         0.000000000000000      
    0.000000000000000        2.1586229038314158E-003    100.0000000000000     
   0.2666666666666667         0.000000000000000         0.000000000000000      
    0.000000000000000        3.3340906210237555E-003    100.0000000000000     
   0.3000000000000000         0.000000000000000         0.000000000000000      
    0.000000000000000        4.6967497909182381E-003    100.0000000000000     
   0.3333333333333333         0.000000000000000         0.000000000000000      
    0.000000000000000        6.2265132999322391E-003    100.0000000000000     
   0.3666666666666666         0.000000000000000         0.000000000000000      
    0.000000000000000        7.9016901881639925E-003    100.0000000000000     
   0.4000000000000000         0.000000000000000         0.000000000000000      
    0.000000000000000        9.6990004421405786E-003    100.0000000000000     
   0.4333333333333334         0.000000000000000         0.000000000000000      
    0.000000000000000        1.1593509826256567E-002    100.0000000000000     
   0.4666666666666667         0.000000000000000         0.000000000000000      
    0.000000000000000        1.3558682639466637E-002    100.0000000000000     
   0.5000000000000000         0.000000000000000         0.000000000000000      
    0.000000000000000        1.5566485917609413E-002    100.0000000000000     
   0.5333333333333333         0.000000000000000         0.000000000000000      
    0.000000000000000        1.7587570870445306E-002    100.0000000000000     
   0.5666666666666667         0.000000000000000         0.000000000000000      
    0.000000000000000        1.9591529553953581E-002    100.0000000000000     
   0.6000000000000000         0.000000000000000         0.000000000000000      
    0.000000000000000        2.1547234672243863E-002    100.0000000000000     
   0.6333333333333333         0.000000000000000         0.000000000000000      
    0.000000000000000        2.3423262144298448E-002    100.0000000000000     
   0.6666666666666666         0.000000000000000         0.000000000000000      
    0.000000000000000        2.5188402986277496E-002    100.0000000000000     
   0.7000000000000000         0.000000000000000         0.000000000000000      
    0.000000000000000        2.6812230111183603E-002    100.0000000000000     
   0.7333333333333333         0.000000000000000         0.000000000000000      
    0.000000000000000        2.8265766266186685E-002    100.0000000000000     
   0.7666666666666667         0.000000000000000         0.000000000000000      
    0.000000000000000        2.9522057449074619E-002    100.0000000000000     
   0.8000000000000000         0.000000000000000         0.000000000000000      
    0.000000000000000        3.0557087708945968E-002    100.0000000000000     
   0.8333333333333334         0.000000000000000         0.000000000000000      
    0.000000000000000        3.1349893175971845E-002    100.0000000000000     
   0.8666666666666667         0.000000000000000         0.000000000000000      
    0.000000000000000        3.1885314056414059E-002    100.0000000000000     
   0.9000000000000000         0.000000000000000         0.000000000000000      
    0.000000000000000        3.2151146956455455E-002    100.0000000000000     
   0.9333333333333334         0.000000000000000         0.000000000000000      
    0.000000000000000        3.2151698817876058E-002    100.0000000000000     
   0.9666666666666667         0.000000000000000         0.000000000000000      
    0.000000000000000        3.1843799968673897E-002    100.0000000000000     
    1.000000000000000         0.000000000000000         0.000000000000000      
    0.000000000000000        3.1453467471813483E-002    100.0000000000000     
    0.000000000000000        3.3333333333333333E-002   3.2892415748269115E-007 
  -3.2152658356980382E-007   1.5796201616590714E-004    100.0000000000000     
   3.3333333333333333E-002   3.3333333333333333E-002  -1.6168578462906987E-004 
   1.6188799428779510E-004   2.0619185403756265E-006    101.5613949881687     
   6.6666666666666666E-002   3.3333333333333333E-002  -7.6723702854973748E-004 
   3.3461402673465746E-004  -1.2230152127805607E-005    103.1804482317054     
   0.1000000000000000        3.3333333333333333E-002  -1.6388384422475655E-003 
   4.3622161323428902E-004   9.7608544765236696E-005    104.7918941254008     
   0.1333333333333333        3.3333333333333333E-002  -2.6776979447115999E-003 
   4.8248640810905102E-004   4.1272476672751947E-004    106.4287200304797     
   0.1666666666666667        3.3333333333333333E-002  -3.7809945180311308E-003 
   4.9641669463514602E-004   9.3731245009080364E-004    108.0663024141282     
   0.2000000000000000        3.3333333333333333E-002  -4.8911831316210347E-003 
   4.8746011547561220E-004   1.6778517145690278E-003    109.6876225726451     
   0.2333333333333333        3.3333333333333333E-002  -5.9649455332288492E-003 
   4.6358062607631081E-004   2.6247393381875796E-003    111.2661828376890     
   0.2666666666666667        3.3333333333333333E-002  -6.9734440423691018E-003 
   4.2888628297372975E-004   3.7661235764616459E-003    112.7680223488805     
   0.3000000000000000        3.3333333333333333E-002  -7.8946541346421942E-003 
   3.8602613508505217E-004   5.0859326689600450E-003    114.1645731078852     
   0.3333333333333333        3.3333333333333333E-002  -8.7115618028023901E-003 
   3.3653328714160045E-004   6.5658886007818511E-003    115.4229651005577     
   0.3666666666666666        3.3333333333333333E-002  -9.4101616218946645E-003 
   2.8150027030162669E-004   8.1854934619813111E-003    116.5215065200209     
   0.4000000000000000        3.3333333333333333E-002  -9.9786812098835685E-003 
   2.2172081379531150E-004   9.9223536882614843E-003    117.4427298426986     
   0.4333333333333334        3.3333333333333333E-002  -1.0407121571487484E-002 
   1.5790065857759363E-004   1.1752295849849319E-002    118.1759121303154     
   0.4666666666666667        3.3333333333333333E-002  -1.0687128497759425E-002 
   9.0736831712339713E-005   1.3649528957879289E-002    118.7139134425201     
   0.5000000000000000        3.3333333333333333E-002  -1.0812050706077395E-002 
   2.0993821413258142E-005   1.5586823368946784E-002    119.0520778276410     
   0.5333333333333333        3.3333333333333333E-002  -1.0777133960195065E-002 
  -5.0450320881539730E-005   1.7535744977609471E-002    119.1867174356348     
   0.5666666666666667        3.3333333333333333E-002  -1.0579815809123193E-002 
  -1.2256563319543910E-004   1.9466950596302667E-002    119.1144784152730     
   0.6000000000000000        3.3333333333333333E-002  -1.0220096182246018E-002 
  -1.9414284073459242E-004   2.1350557752685743E-002    118.8321232448473     
   0.6333333333333333        3.3333333333333333E-002  -9.7009706994456730E-003 
  -2.6376808349180293E-004   2.3156591611884977E-002    118.3366297318817     
   0.6666666666666666        3.3333333333333333E-002  -9.0289081006250070E-003 
  -3.2980680016414651E-004   2.4855525089741943E-002    117.6256851718052     
   0.7000000000000000        3.3333333333333333E-002  -8.2144187152023776E-003 
  -3.9035899383852883E-004   2.6418873325711655E-002    116.6978655699676     
   0.7333333333333333        3.3333333333333333E-002  -7.2726328042075020E-003 
  -4.4323175282655509E-004   2.7819976899155215E-002    115.5540643620183     
   0.7666666666666667        3.3333333333333333E-002  -6.2243688425617635E-003 
  -4.8573880814999098E-004   2.9034577159648994E-002    114.1964185166159     
   0.8000000000000000        3.3333333333333333E-002  -5.0967587597579725E-003 
  -5.1463379658831920E-004   3.0042487876354523E-002    112.6324686125494     
   0.8333333333333334        3.3333333333333333E-002  -3.9270841317425162E-003 
  -5.2518739772403078E-004   3.0826727717029198E-002    110.8697854988931     
   0.8666666666666667        3.3333333333333333E-002  -2.7608486361509373E-003 
  -5.1168485144028057E-004   3.1381328943186640E-002    108.9276779522746     
   0.9000000000000000        3.3333333333333333E-002  -1.6716792610275207E-003 
  -4.6303042953756011E-004   3.1696584998469814E-002    106.8214535935678     
   0.9333333333333334        3.3333333333333333E-002  -7.2712419598506661E-004 
  -3.7392526669395224E-004   3.1813144331152815E-002    104.6001012990707     
   0.9666666666666667        3.3333333333333333E-002  -1.2313907760846447E-004 
  -1.9855480137538872E-004   3.1693378894739915E-002    102.2707412396131     
    1.000000000000000        3.3333333333333333E-002   1.3186932869228588E-004 
   2.6293004168595387E-004   3.1637338017365402E-002    100.0000000000000     
    0.000000000000000        6.6666666666666666E-002  -9.3934602271217093E-007 
   1.5984869307491331E-006   3.3943493131676969E-004    100.0000000000000     
   3.3333333333333333E-002   6.6666666666666666E-002  -3.3809465610788682E-004 
   7.7141098355771839E-004   1.5784140221079617E-005    103.1936985541131     
   6.6666666666666666E-002   6.6666666666666666E-002  -1.4061008650970148E-003 
   1.3893444790830510E-003   2.5811634441685468E-006    106.4739755921754     
   0.1000000000000000        6.6666666666666666E-002  -2.8291092360570487E-003 
   1.7782662119646016E-003   1.1262196174123766E-004    109.7492690191800     
   0.1333333333333333        6.6666666666666666E-002  -4.5031617594306307E-003 
   1.9727862378013323E-003   4.4454943310055024E-004    113.0242855337781     
   0.1666666666666667        6.6666666666666666E-002  -6.2783687149338459E-003 
   2.0342838420345142E-003   9.7926474624729040E-004    116.3128156529198     
   0.2000000000000000        6.6666666666666666E-002  -8.0692247235334604E-003 
   2.0041915347353903E-003   1.7262228329499444E-003    119.5631089341200     
   0.2333333333333333        6.6666666666666666E-002  -9.8058637373729992E-003 
   1.9102916341127544E-003   2.6747329627157591E-003    122.7114209158708     
   0.2666666666666667        6.6666666666666666E-002  -1.1440310927512749E-002 
   1.7699820993359991E-003   3.8146267286813750E-003    125.7309180469560     
   0.3000000000000000        6.6666666666666666E-002  -1.2934994022399155E-002 
   1.5940827410707908E-003   5.1303699857402135E-003    128.5220722451658     
   0.3333333333333333        6.6666666666666666E-002  -1.4260924359901818E-002 
   1.3897180212364506E-003   6.6045409930202163E-003    131.0399164642741     
   0.3666666666666666        6.6666666666666666E-002  -1.5394305501849415E-002 
   1.1616755132075217E-003   8.2170566093325657E-003    133.2300145093993     
   0.4000000000000000        6.6666666666666666E-002  -1.6315452705600406E-002 
   9.1363946804321470E-004   9.9459300277500457E-003    135.0624301908601     
   0.4333333333333334        6.6666666666666666E-002  -1.7007847341277336E-002 
   6.4876051343873517E-004   1.1767261533477192E-002    136.5149668561073     
   0.4666666666666667        6.6666666666666666E-002  -1.7457923250594375E-002 
   3.7012712533781650E-004   1.3655501662705249E-002    137.5753886231448     
   0.5000000000000000        6.6666666666666666E-002  -1.7655069651715847E-002 
   8.1052912492184334E-005   1.5583631466813679E-002    138.2352594759678     
   0.5333333333333333        6.6666666666666666E-002  -1.7591914240042406E-002 
  -2.1470346193791645E-004   1.7523424248820758E-002    138.4879984797651     
   0.5666666666666667        6.6666666666666666E-002  -1.7264768673131373E-002 
  -5.1277485266145871E-004   1.9445750447528665E-002    138.3273139008621     
   0.6000000000000000        6.6666666666666666E-002  -1.6674215754566353E-002 
  -8.0805507841750829E-004   2.1320962103184415E-002    137.7469303042720     
   0.6333333333333333        6.6666666666666666E-002  -1.5825816212928220E-002 
  -1.0945987995826505E-003   2.3119346985279111E-002    136.7410294024966     
   0.6666666666666666        6.6666666666666666E-002  -1.4730892494293487E-002 
  -1.3655040453680201E-003   2.4811695393428236E-002    135.3045830874719     
   0.7000000000000000        6.6666666666666666E-002  -1.3407482431757755E-002 
  -1.6128005141377794E-003   2.6369896869809492E-002    133.4356560648783     
   0.7333333333333333        6.6666666666666666E-002  -1.1881321992475569E-002 
  -1.8271141975092552E-003   2.7767797284069830E-002    131.1337343890460     
   0.7666666666666667        6.6666666666666666E-002  -1.0187495788276999E-002 
  -1.9973186722741210E-003   2.8981752233013580E-002    128.4081855489489     
   0.8000000000000000        6.6666666666666666E-002  -8.3716866021496476E-003 
  -2.1092065083331167E-003   2.9992424571969514E-002    125.2658496636039     
   0.8333333333333334        6.6666666666666666E-002  -6.4950923202476314E-003 
  -2.1445574015484907E-003   3.0783865815573404E-002    121.7380742140085     
   0.8666666666666667        6.6666666666666666E-002  -4.6333847192772393E-003 
  -2.0764785238888048E-003   3.1351205498193535E-002    117.8453559966417     
   0.9000000000000000        6.6666666666666666E-002  -2.9001284241912443E-003 
  -1.8708866286031029E-003   3.1685745489341305E-002    113.6435158008172     
   0.9333333333333334        6.6666666666666666E-002  -1.4095616873940706E-003 
  -1.4668031239235010E-003   3.1829323165264836E-002    109.2143969779645     
   0.9666666666666667        6.6666666666666666E-002  -4.2490973196243777E-004 
  -8.0976674212445007E-004   3.1734852058905985E-002    104.5998872346504     
    1.000000000000000        6.6666666666666666E-002   1.3164202324472452E-004 
   2.6333727563537996E-004   3.1714785782859550E-002    100.0000000000000     
    0.000000000000000        0.1000000000000000       -7.0676067693206693E-007 
   2.1220827600168014E-006   3.4888061441463655E-004    100.0000000000000     
   3.3333333333333333E-002   0.1000000000000000       -4.5586461580703487E-004 
   1.6706602210729360E-003  -9.5072241220743630E-005    104.8613178133296     
   6.6666666666666666E-002   0.1000000000000000       -1.8629076710450492E-003 
   2.8346665020273550E-003  -1.1177344154832666E-004    109.8158244766077     
   0.1000000000000000        0.1000000000000000       -3.6769180018742880E-003 
   3.5566889480240010E-003  -3.0665651562035897E-006    114.7813500861421     
   0.1333333333333333        0.1000000000000000       -5.7811290648060124E-003 
   3.9299826211751680E-003   3.4322269882806119E-004    119.7632962793774     
   0.1666666666666667        0.1000000000000000       -7.9998153480936966E-003 
   4.0528227385769203E-003   8.8974654449011040E-004    124.7194016823648     
   0.2000000000000000        0.1000000000000000       -1.0235573742015133E-002 
   3.9975621602001583E-003   1.6481445216304010E-003    129.4915038547969     
   0.2333333333333333        0.1000000000000000       -1.2404567922281956E-002 
   3.8148905087521650E-003   2.6059880875874881E-003    134.3220220429229     
   0.2666666666666667        0.1000000000000000       -1.4446830056662448E-002 
   3.5374277303153305E-003   3.7536383943412195E-003    138.8390497087762     
   0.3000000000000000        0.1000000000000000       -1.6315349430151629E-002 
   3.1871959939795145E-003   5.0762959817352692E-003    143.0718679207807     
   0.3333333333333333        0.1000000000000000       -1.7972913968632341E-002 
   2.7784001492391587E-003   6.5567605266934718E-003    146.8627733436946     
   0.3666666666666666        0.1000000000000000       -1.9389361266582601E-002 
   2.3213461895969416E-003   8.1754362736624498E-003    150.1661177454409     
   0.4000000000000000        0.1000000000000000       -2.0539631909747162E-002 
   1.8237511345545673E-003   9.9105410125677820E-003    152.9210628698394     
   0.4333333333333334        0.1000000000000000       -2.1402961812225695E-002 
   1.2923094829856512E-003   1.1738367144681393E-002    155.1023903558883     
   0.4666666666666667        0.1000000000000000       -2.1962393783621741E-002 
   7.3347160127432479E-004   1.3633475095081303E-002    156.6923219810872     
   0.5000000000000000        0.1000000000000000       -2.2204810778933347E-002 
   1.5408082604521280E-004   1.5568918305427167E-002    157.6807600612250     
   0.5333333333333333        0.1000000000000000       -2.2121222824959583E-002 
  -4.3817865436824525E-004   1.7516505500831607E-002    158.0586866697792     
   0.5666666666666667        0.1000000000000000       -2.1707306330097664E-002 
  -1.0344298604920243E-003   1.9447118779870733E-002    157.8167176767960     
   0.6000000000000000        0.1000000000000000       -2.0964142008571034E-002 
  -1.6243276227306954E-003   2.1331096819102422E-002    156.9451874530163     
   0.6333333333333333        0.1000000000000000       -1.9899090933724516E-002 
  -2.1958211206328832E-003   2.3138719997439217E-002    155.4344577736453     
   0.6666666666666666        0.1000000000000000       -1.8526851637377471E-002 
  -2.7349496865794786E-003   2.4840742429434640E-002    153.2769400180778     
   0.7000000000000000        0.1000000000000000       -1.6870550885663738E-002 
  -3.2255043008544036E-003   2.6409138757343832E-002    150.4648204310980     
   0.7333333333333333        0.1000000000000000       -1.4963262670558529E-002 
  -3.6486206792815347E-003   2.7817681696833498E-002    147.0042785552164     
   0.7666666666666667        0.1000000000000000       -1.2849279537479438E-002 
  -3.9817188281958352E-003   2.9043266828093411E-002    142.8891279158567     
   0.8000000000000000        0.1000000000000000       -1.0587121479618775E-002 
  -4.1969239233390155E-003   3.0065913622715334E-002    138.1688783307218     
   0.8333333333333334        0.1000000000000000       -8.2504475493796452E-003 
  -4.2583106091085045E-003   3.0872281051674565E-002    132.8204135186483     
   0.8666666666666667        0.1000000000000000       -5.9379397889594183E-003 
  -4.1157428135377904E-003   3.1451056826825557E-002    126.9869165055673     
   0.9000000000000000        0.1000000000000000       -3.7655042726290775E-003 
  -3.7041058575143968E-003   3.1809974836552200E-002    120.6458495134645     
   0.9333333333333334        0.1000000000000000       -1.9135351037902044E-003 
  -2.9203144292379076E-003   3.1935120726294036E-002    113.9261618222090     
   0.9666666666666667        0.1000000000000000       -5.2454673397186135E-004 
  -1.6805039084685312E-003   3.1909704144119491E-002    107.0107894418441     
    1.000000000000000        0.1000000000000000         0.000000000000000      
    0.000000000000000        3.1584720569530579E-002    100.0000000000000     
    0.000000000000000        0.1333333333333333         0.000000000000000      
    0.000000000000000        1.1076278627139674E-004    100.0000000000000     
   3.3333333333333333E-002   0.1333333333333333       -5.3296457220467018E-004 
   2.7908904392170732E-003  -4.1968100975639392E-004    106.5505033660805     
   6.6666666666666666E-002   0.1333333333333333       -2.1837564408117805E-003 
   4.6109419472673005E-003  -4.5647154338792262E-004    113.1923570669223     
   0.1000000000000000        0.1333333333333333       -4.2945038036001325E-003 
   5.7124191942199559E-003  -3.6041294574763928E-004    119.8642723847199     
   0.1333333333333333        0.1333333333333333       -6.7229292003776033E-003 
   6.2824686687740017E-003  -7.3756744997015435E-006    126.5586172682818     
   0.1666666666666667        0.1333333333333333       -9.2694729657247059E-003 
   6.4698539342089205E-003   5.5234843308921318E-004    133.1895594505471     
   0.2000000000000000        0.1333333333333333       -1.1829190130948309E-002 
   6.3815292368396108E-003   1.3294790261532724E-003    139.7271038316316     
   0.2333333333333333        0.1333333333333333       -1.4308334623649319E-002 
   6.0916648199664065E-003   2.3093890081383392E-003    145.8650961385169     
   0.2666666666666667        0.1333333333333333       -1.6642688422389761E-002 
   5.6507085590338990E-003   3.4823516333886933E-003    152.1038022899252     
   0.3000000000000000        0.1333333333333333       -1.8777331896063964E-002 
   5.0917593374582293E-003   4.8322784006667079E-003    157.7400487261551     
   0.3333333333333333        0.1333333333333333       -2.0671205275706529E-002 
   4.4385733281426852E-003   6.3427134386407399E-003    162.8835252387799     
   0.3666666666666666        0.1333333333333333       -2.2289454385537866E-002 
   3.7073804695336768E-003   7.9935281780627483E-003    167.3271911823379     
   0.4000000000000000        0.1333333333333333       -2.3603836021767164E-002 
   2.9110455992056253E-003   9.7630206054947904E-003    171.0413799003896     
   0.4333333333333334        0.1333333333333333       -2.4590588649570925E-002 
   2.0605124733810167E-003   1.1627289150680994E-002    173.9781064196744     
   0.4666666666666667        0.1333333333333333       -2.5230426831349850E-002 
   1.1663130203553437E-003   1.3560704041085926E-002    176.1236548591326     
   0.5000000000000000        0.1333333333333333       -2.5508342572438347E-002 
   2.3952665715628907E-004   1.5536035241351609E-002    177.4673626939320     
   0.5333333333333333        0.1333333333333333       -2.5413965199432859E-002 
  -7.0747825558749105E-004   1.7524735772219684E-002    177.9979832917175     
   0.5666666666666667        0.1333333333333333       -2.4942166849268643E-002 
  -1.6604411758979198E-003   1.9497241031453574E-002    177.7024277739059     
   0.6000000000000000        0.1333333333333333       -2.4093921037410856E-002 
  -2.6027274786407512E-003   2.1423360892331832E-002    176.5659214891023     
   0.6333333333333333        0.1333333333333333       -2.2877389745327076E-002 
  -3.5149544925689069E-003   2.3272741713291249E-002    174.5749096865873     
   0.6666666666666666        0.1333333333333333       -2.1309117775106926E-002 
  -4.3745700502707202E-003   2.5015469109062549E-002    171.7146887619408     
   0.7000000000000000        0.1333333333333333       -1.9415484997755670E-002 
  -5.1555370139442572E-003   2.6622700144570282E-002    167.9807204226290     
   0.7333333333333333        0.1333333333333333       -1.7234136155753626E-002 
  -5.8272978139790191E-003   2.8067535924856852E-002    163.3450552710910     
   0.7666666666666667        0.1333333333333333       -1.4815963830601532E-002 
  -6.3541693315133365E-003   2.9325876996321297E-002    157.8759055663289     
   0.8000000000000000        0.1333333333333333       -1.2227157219652212E-002 
  -6.6919874278412233E-003   3.0376980845056203E-002    151.4613517013193     
   0.8333333333333334        0.1333333333333333       -9.5509920189740354E-003 
  -6.7856766298646475E-003   3.1206886842783783E-002    144.4272460827023     
   0.8666666666666667        0.1333333333333333       -6.8973862967803131E-003 
  -6.5611659601070389E-003   3.1799933382044322E-002    136.5037863208419     
   0.9000000000000000        0.1333333333333333       -4.3883126820336502E-003 
  -5.9193719698164855E-003   3.2168183592562134E-002    127.9322433896227     
   0.9333333333333334        0.1333333333333333       -2.2303880062237817E-003 
  -4.7228269107903792E-003   3.2268125063362109E-002    118.8529230044360     
   0.9666666666666667        0.1333333333333333       -5.5170166987896126E-004 
  -2.8200239678021727E-003   3.2227479243427504E-002    109.5120814997906     
    1.000000000000000        0.1333333333333333         0.000000000000000      
    0.000000000000000        3.1680465214841989E-002    100.0000000000000     
    0.000000000000000        0.1666666666666667         0.000000000000000      
    0.000000000000000       -3.8341789074561143E-004    100.0000000000000     
   3.3333333333333333E-002   0.1666666666666667       -5.9202789126517436E-004 
   4.0616053219205382E-003  -9.7581897873523927E-004    108.2482585206878     
   6.6666666666666666E-002   0.1666666666666667       -2.4327670813710680E-003 
   6.6243718396303683E-003  -1.0280095156233614E-003    116.5977871058687     
   0.1000000000000000        0.1666666666666667       -4.7855398782332458E-003 
   8.1431248726737803E-003  -9.4061562510233058E-004    124.9294768991816     
   0.1333333333333333        0.1666666666666667       -7.4833066654463659E-003 
   8.9211520123497548E-003  -5.7839150066650873E-004    133.4160786647660     
   0.1666666666666667        0.1666666666666667       -1.0302491513177227E-002 
   9.1713989931044744E-003  -3.9029690397324867E-007    141.7981841463846     
   0.2000000000000000        0.1666666666666667       -1.3128520455183092E-002 
   9.0402522949154223E-003   8.0414349796013450E-004    149.9727257172068     
   0.2333333333333333        0.1666666666666667       -1.5861964644359478E-002 
   8.6285234823504069E-003   1.8175350641185285E-003    157.9136502568384     
   0.2666666666666667        0.1666666666666667       -1.8431401467019617E-002 
   8.0035711764706013E-003   3.0302950788969095E-003    165.1979094058403     
   0.3000000000000000        0.1666666666666667       -2.0782151377350611E-002 
   7.2125134562510693E-003   4.4258531794712725E-003    172.6163378138746     
   0.3333333333333333        0.1666666666666667       -2.2866559919638697E-002 
   6.2870677796929477E-003   5.9857661461602098E-003    179.0753988933734     
   0.3666666666666666        0.1666666666666667       -2.4649106546851970E-002 
   5.2513753819905919E-003   7.6906683166207655E-003    184.7633727909608     
   0.4000000000000000        0.1666666666666667       -2.6098504189000674E-002 
   4.1233280567628946E-003   9.5181449824294426E-003    189.4745137167956     
   0.4333333333333334        0.1666666666666667       -2.7189190887403646E-002 
   2.9185568410857693E-003   1.1443945364232336E-002    193.2006460025465     
   0.4666666666666667        0.1666666666666667       -2.7899983739058783E-002 
   1.6520008186637365E-003   1.3441948365833994E-002    195.9330083602251     
   0.5000000000000000        0.1666666666666667       -2.8214146139303526E-002 
   3.3924138054502068E-004   1.5484359465573274E-002    197.6613852024744     
   0.5333333333333333        0.1666666666666667       -2.8119726028284966E-002 
  -1.0023220191165984E-003   1.7541955164546985E-002    198.3748707324139     
   0.5666666666666667        0.1666666666666667       -2.7610232853040661E-002 
  -2.3526020586723470E-003   1.9584369249328128E-002    198.0558078934006     
   0.6000000000000000        0.1666666666666667       -2.6685683659834158E-002 
  -3.6880841905447357E-003   2.1580443366216437E-002    196.6828905997658     
   0.6333333333333333        0.1666666666666667       -2.5353820281951423E-002 
  -4.9811877266218354E-003   2.3498760649644391E-002    194.2336968182019     
   0.6666666666666666        0.1666666666666667       -2.3631791105910297E-002 
  -6.1998423992687636E-003   2.5308067429066668E-002    190.6988323146468     
   0.7000000000000000        0.1666666666666667       -2.1547361436359963E-002 
  -7.3066338029608904E-003   2.6978402690757273E-002    186.0445191264634     
   0.7333333333333333        0.1666666666666667       -1.9141631667118502E-002 
  -8.2584642693742816E-003   2.8480926526775346E-002    180.3153355875792     
   0.7666666666666667        0.1666666666666667       -1.6469019945454549E-002 
  -9.0038255406952317E-003   2.9790871373619868E-002    173.2913425785440     
   0.8000000000000000        0.1666666666666667       -1.3604276029463966E-002 
  -9.4823849391546915E-003   3.0884979866856628E-002    165.5883016118010     
   0.8333333333333334        0.1666666666666667       -1.0635941114607384E-002 
  -9.6175399330263259E-003   3.1748228632926978E-002    156.5334538032166     
   0.8666666666666667        0.1666666666666667       -7.6857772047625450E-003 
  -9.3102353979247991E-003   3.2362387450658357E-002    146.4781612281703     
   0.9000000000000000        0.1666666666666667       -4.8860846847926485E-003 
  -8.4269953719574627E-003   3.2739659785598924E-002    135.5890928691134     
   0.9333333333333334        0.1666666666666667       -2.4685892097634854E-003 
  -6.7811925017993617E-003   3.2826618730229629E-002    124.0200639121467     
   0.9666666666666667        0.1666666666666667       -5.9643388653150755E-004 
  -4.1129145722975996E-003   3.2766776845241208E-002    112.1161802571453     
    1.000000000000000        0.1666666666666667         0.000000000000000      