 VARIABLES="X" "Y" "U<sub>x" "V<sub>y" "Pressure" "Temprature"
 Zone i=           40 ,j=           80 ,k=1,f=point
    0.000000000000000         0.000000000000000         0.000000000000000      
    0.000000000000000         0.000000000000000         100.0000000000000     
   2.5641025641025640E-002    0.000000000000000         0.000000000000000      
   2.9378079433940235E-009  -3.0553197190137049E-007    100.0000000000000     
   5.1282051282051280E-002    0.000000000000000       -1.4502988872246613E-009 
   4.8999506489534677E-010  -9.1180246215870733E-007    100.0000000000000     
   7.6923076923076927E-002    0.000000000000000       -4.3280929054793740E-009 
   1.4612777471425286E-009  -1.3516206829808779E-006    100.0000000000000     
   0.1025641025641026         0.000000000000000         0.000000000000000      
   2.1662090732015408E-009  -1.3789708602381706E-006    100.0000000000000     
   0.1282051282051282         0.000000000000000         0.000000000000000      
    0.000000000000000       -9.2555390084111752E-007    100.0000000000000     
   0.1538461538461539         0.000000000000000         0.000000000000000      
    0.000000000000000        3.1269221963650751E-008    100.0000000000000     
   0.1794871794871795         0.000000000000000         0.000000000000000      
    0.000000000000000        1.4885618543084950E-006    100.0000000000000     
   0.2051282051282051         0.000000000000000         0.000000000000000      
    0.000000000000000        3.4311157803963383E-006    100.0000000000000     
   0.2307692307692308         0.000000000000000         0.000000000000000      
    0.000000000000000        5.8347234083773680E-006    100.0000000000000     
   0.2564102564102564         0.000000000000000         0.000000000000000      
    0.000000000000000        8.6693599436921373E-006    100.0000000000000     
   0.2820512820512821         0.000000000000000         0.000000000000000      
    0.000000000000000        1.1900318112150338E-005    100.0000000000000     
   0.3076923076923077         0.000000000000000         0.000000000000000      
    0.000000000000000        1.5489230986398923E-005    100.0000000000000     
   0.3333333333333333         0.000000000000000         0.000000000000000      
    0.000000000000000        1.9394735999892648E-005    100.0000000000000     
   0.3589743589743590         0.000000000000000         0.000000000000000      
    0.000000000000000        2.3573088742297242E-005    100.0000000000000     
   0.3846153846153846         0.000000000000000         0.000000000000000      
    0.000000000000000        2.7978705333632201E-005    100.0000000000000     
   0.4102564102564102         0.000000000000000         0.000000000000000      
    0.000000000000000        3.2564684886577107E-005    100.0000000000000     
   0.4358974358974359         0.000000000000000         0.000000000000000      
    0.000000000000000        3.7283310647145623E-005    100.0000000000000     
   0.4615384615384616         0.000000000000000         0.000000000000000      
    0.000000000000000        4.2086533780393275E-005    100.0000000000000     
   0.4871794871794872         0.000000000000000         0.000000000000000      
    0.000000000000000        4.6926436082221594E-005    100.0000000000000     
   0.5128205128205128         0.000000000000000         0.000000000000000      
    0.000000000000000        5.1755667656393633E-005    100.0000000000000     
   0.5384615384615384         0.000000000000000         0.000000000000000      
    0.000000000000000        5.6527854410250209E-005    100.0000000000000     
   0.5641025641025641         0.000000000000000         0.000000000000000      
    0.000000000000000        6.1197971135493870E-005    100.0000000000000     
   0.5897435897435898         0.000000000000000         0.000000000000000      
    0.000000000000000        6.5722676589746758E-005    100.0000000000000     
   0.6153846153846154         0.000000000000000         0.000000000000000      
    0.000000000000000        7.0060609125028293E-005    100.0000000000000     
   0.6410256410256411         0.000000000000000         0.000000000000000      
    0.000000000000000        7.4172642333332120E-005    100.0000000000000     
   0.6666666666666666         0.000000000000000         0.000000000000000      
    0.000000000000000        7.8022104119020039E-005    100.0000000000000     
   0.6923076923076923         0.000000000000000         0.000000000000000      
    0.000000000000000        8.1574964281586480E-005    100.0000000000000     
   0.7179487179487180         0.000000000000000         0.000000000000000      
    0.000000000000000        8.4800003861073178E-005    100.0000000000000     
   0.7435897435897436         0.000000000000000         0.000000000000000      
    0.000000000000000        8.7668980125422583E-005    100.0000000000000     
   0.7692307692307693         0.000000000000000         0.000000000000000      
    0.000000000000000        9.0156833174162687E-005    100.0000000000000     
   0.7948717948717948         0.000000000000000         0.000000000000000      
    0.000000000000000        9.2241962638741845E-005    100.0000000000000     
   0.8205128205128205         0.000000000000000         0.000000000000000      
    0.000000000000000        9.3906767600808049E-005    100.0000000000000     
   0.8461538461538462         0.000000000000000         0.000000000000000      
    0.000000000000000        9.5138487445540619E-005    100.0000000000000     
   0.8717948717948718         0.000000000000000         0.000000000000000      
    0.000000000000000        9.5931319309923324E-005    100.0000000000000     
   0.8974358974358975         0.000000000000000         0.000000000000000      
    0.000000000000000        9.6289781397813478E-005    100.0000000000000     
   0.9230769230769231         0.000000000000000         0.000000000000000      
    0.000000000000000        9.6238933561110736E-005    100.0000000000000     
   0.9487179487179487         0.000000000000000         0.000000000000000      
    0.000000000000000        9.5843467291182498E-005    100.0000000000000     
   0.9743589743589743         0.000000000000000         0.000000000000000      
    0.000000000000000        9.5280631237822113E-005    100.0000000000000     
    1.000000000000000         0.000000000000000         0.000000000000000      
    0.000000000000000        9.4953589766124809E-005    100.0000000000000     
    0.000000000000000        2.5316455696202531E-002   4.8343774570449941E-010 
  -4.8853911926817073E-010   2.9930500875946943E-007    100.0000000000000     
   2.5641025641025640E-002   2.5316455696202531E-002  -1.8355322610056830E-006 
   1.8460220843140278E-006  -4.8089005181504263E-009    100.0796684826942     
   5.1282051282051280E-002   2.5316455696202531E-002  -1.0977944761569755E-005 
   5.1870196825886918E-006  -2.3515316970984383E-007    100.1592276025664     
   7.6923076923076927E-002   2.5316455696202531E-002  -2.6482746608018172E-005 
   7.8318046436727196E-006  -3.3911974350754363E-007    100.2375608502789     
   0.1025641025641026        2.5316455696202531E-002  -4.6993604334732141E-005 
   9.5883771999048154E-006  -1.1876694614407840E-007    100.3145788539169     
   0.1282051282051282        2.5316455696202531E-002  -7.0749866052947967E-005 
   1.0681003034431776E-005   4.8660511229740538E-007    100.3898144257365     
   0.1538461538461539        2.5316455696202531E-002  -9.6446299787907380E-005 
   1.1239601564775595E-005   1.5253504192377667E-006    100.4628149195789     
   0.1794871794871795        2.5316455696202531E-002  -1.2298923430541231E-004 
   1.1389729071957161E-005   3.0073652014401307E-006    100.5331054376007     
   0.2051282051282051        2.5316455696202531E-002  -1.4953157538500421E-004 
   1.1215663923312873E-005   4.9302139847184632E-006    100.6002207804647     
   0.2307692307692308        2.5316455696202531E-002  -1.7538548922611227E-004 
   1.0783177452866220E-005   7.2783245458931198E-006    100.6637116741971     
   0.2564102564102564        2.5316455696202531E-002  -1.9999777720822070E-004 
   1.0141430019146746E-005   1.0028698755891315E-005    100.7231465580260     
   0.2820512820512821        2.5316455696202531E-002  -2.2291699524455794E-004 
   9.3298307054488206E-006   1.3152031009143424E-005    100.7781160594711     
   0.3076923076923077        2.5316455696202531E-002  -2.4377642528031527E-004 
   8.3806027402951470E-006   1.6614439508299513E-005    100.8282355325536     
   0.3333333333333333        2.5316455696202531E-002  -2.6227987327564838E-004 
   7.3212197931835592E-006   2.0378336915428370E-005    100.8731485588922     
   0.3589743589743590        2.5316455696202531E-002  -2.7819244734362695E-004 
   6.1756987606827219E-006   2.4403278117389016E-005    100.9125305811973     
   0.3846153846153846        2.5316455696202531E-002  -2.9133347725961151E-004 
   4.9655516268873517E-006   2.8646618812652985E-005    100.9460921090909     
   0.4102564102564102        2.5316455696202531E-002  -3.0157128629265244E-004 
   3.7103524207703225E-006   3.3064127228905790E-005    100.9735817857561     
   0.4358974358974359        2.5316455696202531E-002  -3.0881901353507361E-004 
   2.4281212933260020E-006   3.7610537702234633E-005    100.9947888383693     
   0.4615384615384616        2.5316455696202531E-002  -3.1303118784935973E-004 
   1.1355655007926962E-006   4.2240070973900736E-005    101.0095451617453     
   0.4871794871794872        2.5316455696202531E-002  -3.1420078380344125E-004 
  -1.5175572347115295E-007   4.6906920947771420E-005    101.0177269131138     
   0.5128205128205128        2.5316455696202531E-002  -3.1235663104937439E-004 
  -1.4193101560896679E-006   5.1565710601853352E-005    101.0192556377769     
   0.5384615384615384        2.5316455696202531E-002  -3.0756110998903256E-004 
  -2.6534838531542026E-006   5.6171915615341678E-005    101.0140989211232     
   0.5641025641025641        2.5316455696202531E-002  -2.9990813166091865E-004 
  -3.8414622218251529E-006   6.0682254840048043E-005    101.0022705849201     
   0.5897435897435898        2.5316455696202531E-002  -2.8952144951380611E-004 
  -4.9710803404000765E-006   6.5055047006704145E-005    100.9838304571541     
   0.6153846153846154        2.5316455696202531E-002  -2.7655339783697942E-004 
  -6.0306212624503985E-006   6.9250534856064755E-005    100.9588837523936     
   0.6410256410256411        2.5316455696202531E-002  -2.6118420438750125E-004 
  -7.0085393640163824E-006   7.3231179674702353E-005    100.9275800978207     
   0.6666666666666666        2.5316455696202531E-002  -2.4362207585271360E-004 
  -7.8930816130002837E-006   7.6961933962516751E-005    100.8901122630302     
   0.6923076923076923        2.5316455696202531E-002  -2.2410435075145699E-004 
  -8.6717608114191652E-006   8.0410501505277150E-005    100.8467146029538     
   0.7179487179487180        2.5316455696202531E-002  -2.0290006774560746E-004 
  -9.3306383244883549E-006   8.3547610710305140E-005    100.7976613509866     
   0.7435897435897436        2.5316455696202531E-002  -1.8031458874195373E-004 
  -9.8532875094161876E-006   8.6347315688655357E-005    100.7432646061657     
   0.7692307692307693        2.5316455696202531E-002  -1.5669679628343110E-004 
  -1.0219403474179558E-005   8.8787420623259221E-005    100.6838723711123     
   0.7948717948717948        2.5316455696202531E-002  -1.3245057913205700E-004 
  -1.0402597651093369E-005   9.0850002195878922E-005    100.6198663586144     
   0.8205128205128205        2.5316455696202531E-002  -1.0805062509903769E-004 
  -1.0367760521175996E-005   9.2522462400480013E-005    100.5516602729544     
   0.8461538461538462        2.5316455696202531E-002  -8.4068200724802931E-005 
  -1.0065877515523313E-005   9.3798670549647924E-005    100.4796988601368     
   0.8717948717948718        2.5316455696202531E-002  -6.1200440673153238E-005 
  -9.4307287228652670E-006   9.4682396086580742E-005    100.4044580405749     
   0.8974358974358975        2.5316455696202531E-002  -4.0323675800993129E-005 
  -8.3661789881870859E-006   9.5189657189934945E-005    100.3264521189943     
   0.9230769230769231        2.5316455696202531E-002  -2.2518571803584310E-005 
  -6.7610442360158845E-006   9.5361334592752780E-005    100.2462410401039     
   0.9487179487179487        2.5316455696202531E-002  -9.1177368364818772E-006 
  -4.4722786860924929E-006   9.5264424610145819E-005    100.1645042030057     
   0.9743589743589743        2.5316455696202531E-002  -1.4187637204981614E-006 
  -1.6058248892617308E-006   9.5031552710115474E-005    100.0820036815253     
    1.000000000000000        2.5316455696202531E-002   3.0100351513086363E-007 
   6.0920149424942880E-007   9.4806692804866793E-005    100.0000000000000     
    0.000000000000000        5.0632911392405063E-002  -1.1513710801243662E-009 
   2.1205979377525852E-009   9.0991109304716933E-007    100.0000000000000     
   2.5641025641025640E-002   5.0632911392405063E-002  -5.2065351872840668E-006 
   1.0857335468264092E-005   2.2462108997934340E-007    100.1601114898153     
   5.1282051282051280E-002   5.0632911392405063E-002  -2.3697000632357153E-005 
   2.3360924261536724E-005  -3.8417464325011687E-009    100.3200833220422     
   7.6923076923076927E-002   5.0632911392405063E-002  -5.1286312194977074E-005 
   3.3663828137289754E-005  -9.6349912413319809E-008    100.4777634058468     
   0.1025641025641026        5.0632911392405063E-002  -8.6673403590906438E-005 
   4.0933436937693494E-005   1.8394073139678292E-007    100.6325771332686     
   0.1282051282051282        5.0632911392405063E-002  -1.2724403127217633E-004 
   4.5583065640046296E-005   8.3621260431353085E-007    100.7836120343514     
   0.1538461538461539        5.0632911392405063E-002  -1.7108576017500982E-004 
   4.8071678032167095E-005   1.9117679839939814E-006    100.9300695352409     
   0.1794871794871795        5.0632911392405063E-002  -2.1643574657912151E-004 
   4.8829726800901075E-005   3.4142789340426893E-006    101.0710067340480     
   0.2051282051282051        5.0632911392405063E-002  -2.6188719642833533E-004 
   4.8191471721986715E-005   5.3437433813113040E-006    101.2055392163343     
   0.2307692307692308        5.0632911392405063E-002  -3.0626000641007455E-004 
   4.6421890415356886E-005   7.6857711094272556E-006    101.3327730262991     
   0.2564102564102564        5.0632911392405063E-002  -3.4858859361176818E-004 
   4.3729580339992507E-005   1.0419451547708805E-005    101.4518570726016     
   0.2820512820512821        5.0632911392405063E-002  -3.8807508358243100E-004 
   4.0284014032937168E-005   1.3517176697507382E-005    101.5619752802717     
   0.3076923076923077        5.0632911392405063E-002  -4.2406645853464657E-004 
   3.6226367296101738E-005   1.6946676725093101E-005    101.6623597012068     
   0.3333333333333333        5.0632911392405063E-002  -4.5603263406684497E-004 
   3.1677694324559166E-005   2.0671751561119338E-005    101.7522977509498     
   0.3589743589743590        5.0632911392405063E-002  -4.8355175108839789E-004 
   2.6744336069405435E-005   2.4653193606635165E-005    101.8311394732163     
   0.3846153846153846        5.0632911392405063E-002  -5.0629828639316707E-004 
   2.1521596596897016E-005   2.8849453530853909E-005    101.8983055196082     
   0.4102564102564102        5.0632911392405063E-002  -5.2403401299592372E-004 
   1.6096189918020512E-005   3.3217284349466191E-005    101.9532926700153     
   0.4358974358974359        5.0632911392405063E-002  -5.3660060432508491E-004 
   1.0547864887922437E-005   3.7712313003953235E-005    101.9956791193311     
   0.4615384615384616        5.0632911392405063E-002  -5.4391350201177810E-004 
   4.9504977765462785E-006   4.2289578946364422E-005    102.0251286236231     
   0.4871794871794872        5.0632911392405063E-002  -5.4595663018055813E-004 
  -6.2714570695820093E-007   4.6904034715950902E-005    102.0413937495926     
   0.5128205128205128        5.0632911392405063E-002  -5.4277776979740110E-004 
  -6.1208234089863564E-006   5.1511014388041230E-005    102.0443181512073     
   0.5384615384615384        5.0632911392405063E-002  -5.3448448745421707E-004 
  -1.1470286601604886E-005   5.6066668538357650E-005    102.0338378807778     
   0.5641025641025641        5.0632911392405063E-002  -5.2124061910918424E-004 
  -1.6618707670620331E-005   6.0528366133835009E-005    102.0099817903069     
   0.5897435897435898        5.0632911392405063E-002  -5.0326338780094467E-004 
  -2.1511977683798247E-005   6.4855063385465051E-005    101.9728710888289     
   0.6153846153846154        5.0632911392405063E-002  -4.8082130969981791E-004 
  -2.6097787571369849E-005   6.9007641830039527E-005    101.9227181309654     
   0.6410256410256411        5.0632911392405063E-002  -4.5423312687710280E-004 
  -3.0324397499983568E-005   7.2949218873493489E-005    101.8598245350098     
   0.6666666666666666        5.0632911392405063E-002  -4.2386807456022371E-004 
  -3.4138979726265980E-005   7.6645440672956590E-005    101.7845786920249     
   0.6923076923076923        5.0632911392405063E-002  -3.9014794347135646E-004 
  -3.7485377590762406E-005   8.0064763558171238E-005    101.6974528905442     
   0.7179487179487180        5.0632911392405063E-002  -3.5355141103560932E-004 
  -4.0301077833700848E-005   8.3178759544461677E-005    101.5989998899456     
   0.7435897435897436        5.0632911392405063E-002  -3.1462161534351335E-004 
  -4.2513042922076542E-005   8.5962432960205856E-005    101.4898497678272     
   0.7692307692307693        5.0632911392405063E-002  -2.7397731799854233E-004 
  -4.4032114332892405E-005   8.8394707013737602E-005    101.3707057809501     
   0.7948717948717948        5.0632911392405063E-002  -2.3233052095569307E-004 
  -4.4744970903363990E-005   9.0458850992586546E-005    101.2423412563443     
   0.8205128205128205        5.0632911392405063E-002  -1.9050750158688742E-004 
  -4.4504278272416746E-005   9.2143757697229193E-005    101.1055971841446     
   0.8461538461538462        5.0632911392405063E-002  -1.4948624633972425E-004 
  -4.3113070274417916E-005   9.3444099276354602E-005    100.9613790495463     
   0.8717948717948718        5.0632911392405063E-002  -1.1041836341927849E-004 
  -4.0315007978086463E-005   9.4365322178068331E-005    100.8106661129834     
   0.8974358974358975        5.0632911392405063E-002  -7.4714420580445298E-005 
  -3.5769399076826147E-005   9.4918516548951495E-005    100.6545016771799     
   0.9230769230769231        5.0632911392405063E-002  -4.3948810529686872E-005 
  -2.9120665263177794E-005   9.5146198079056426E-005    100.4940483736678     
   0.9487179487179487        5.0632911392405063E-002  -2.0125185202327393E-005 
  -2.0033239528341134E-005   9.5070060674817841E-005    100.3305166625110     
   0.9743589743589743        5.0632911392405063E-002  -4.5966019097943706E-006 
  -9.1962036280176778E-006   9.4847544367132448E-005    100.1654313765866     
    1.000000000000000        5.0632911392405063E-002   2.9988169793201790E-007 
   6.0756759281917116E-007   9.4360493030838457E-005    100.0000000000000     
    0.000000000000000        7.5949367088607597E-002  -1.4396581602843043E-009 
   4.3746898169942816E-009   1.3815406389039407E-006    100.0000000000000     
   2.5641025641025640E-002   7.5949367088607597E-002  -7.9899121519495410E-006 
   2.6314712883854052E-005   3.3614783511790236E-007    100.2418483373862     
   5.1282051282051280E-002   7.5949367088607597E-002  -3.4688337409193566E-005 
   5.0781233906324113E-005   8.9015007534316952E-008    100.4831646445738     
   7.6923076923076927E-002   7.5949367088607597E-002  -7.2336980725365020E-005 
   7.0509861101939142E-005  -1.1514387487201786E-008    100.7211870522807     
   0.1025641025641026        7.5949367088607597E-002  -1.1943525094841808E-004 
   8.4754599645711363E-005   3.1378564477348813E-007    100.9549187294133     
   0.1282051282051282        7.5949367088607597E-002  -1.7278572341945084E-004 
   9.4061987043290518E-005   1.0065946211022781E-006    101.1828553706769     
   0.1538461538461539        7.5949367088607597E-002  -2.3018992395723586E-004 
   9.9172444502214962E-005   2.1196076763135173E-006    101.4037154881514     
   0.1794871794871795        7.5949367088607597E-002  -2.8949361906695491E-004 
   1.0081951208705546E-004   3.6481875685629744E-006    101.6162214727801     
   0.2051282051282051        7.5949367088607597E-002  -3.4894394812741447E-004 
   9.9616575716552153E-005   5.5932211796622721E-006    101.8189842435784     
   0.2307692307692308        7.5949367088607597E-002  -4.0702832330542755E-004 
   9.6069954847265455E-005   7.9404380874909412E-006    102.0107144768004     
   0.2564102564102564        7.5949367088607597E-002  -4.6248854813658462E-004 
   9.0593165465548345E-005   1.0670337133645275E-005    102.1901337787516     
   0.2820512820512821        7.5949367088607597E-002  -5.1427098073151937E-004 
   8.3530396401175144E-005   1.3756566763115459E-005    102.3560236847426     
   0.3076923076923077        7.5949367088607597E-002  -5.6150583220039932E-004 
   7.5173352216245881E-005   1.7168154024804411E-005    102.5072342863747     
   0.3333333333333333        7.5949367088607597E-002  -6.0348282250631080E-004 
   6.5775040781839927E-005   2.0870056590108323E-005    102.6426907355000     
   0.3589743589743590        7.5949367088607597E-002  -6.3963443905072658E-004 
   5.5559178510568375E-005   2.4824109870597448E-005    102.7614163395786     
   0.3846153846153846        7.5949367088607597E-002  -6.6952155172799843E-004 
   4.4727017781269784E-005   2.8989690198088217E-005    102.8625382794005     
   0.4102564102564102        7.5949367088607597E-002  -6.9282204744613562E-004 
   3.3461953824994638E-005   3.3324377346097445E-005    102.9452987466964     
   0.4358974358974359        7.5949367088607597E-002  -7.0932125364677812E-004 
   2.1932733682164369E-005   3.7784542772657924E-005    103.0090623317584     
   0.4615384615384616        7.5949367088607597E-002  -7.1890381381374167E-004 
   1.0295663068070891E-005   4.2325905104283384E-005    103.0533225763283     
   0.4871794871794872        7.5949367088607597E-002  -7.2154660035105771E-004 
  -1.3037883792827193E-006   4.6904046337029696E-005    103.0777070261329     
   0.5128205128205128        7.5949367088607597E-002  -7.1731247245935073E-004 
  -1.2729714679431102E-005   5.1474894624824168E-005    103.0819807025705     
   0.5384615384615384        7.5949367088607597E-002  -7.0634478053735374E-004 
  -2.3854601008659841E-005   5.5995172790965857E-005    103.0660481131696     
   0.5641025641025641        7.5949367088607597E-002  -6.8886263097271878E-004 
  -3.4558062061729491E-005   6.0422813345149374E-005    103.0299538759693     
   0.5897435897435898        7.5949367088607597E-002  -6.6515701609291475E-004 
  -4.4725318326602832E-005   6.4717340534372697E-005    102.9738820780668     
   0.6153846153846154        7.5949367088607597E-002  -6.3558799825996141E-004 
  -5.4245243687278628E-005   6.8840222245853555E-005    102.8981545086159     
   0.6410256410256411        7.5949367088607597E-002  -6.0058323086122057E-004 
  -6.3007802483367993E-005   7.2755194934654007E-005    102.8032278580952     
   0.6666666666666666        7.5949367088607597E-002  -5.6063816113104440E-004 
  -7.0900672441471662E-005   7.6428572679684023E-005    102.6896901621922     
   0.6923076923076923        7.5949367088607597E-002  -5.1631843462800935E-004 
  -7.7804767867313356E-005   7.9829542396585475E-005    102.5582562895319     
   0.7179487179487180        7.5949367088607597E-002  -4.6826491042998550E-004 
  -8.3588356122554636E-005   8.2930489687718713E-005    102.4097638586876     
   0.7435897435897436        7.5949367088607597E-002  -4.1720244111368755E-004 
  -8.8099194063847306E-005   8.5707304277797617E-005    102.2451667500342     
   0.7692307692307693        7.5949367088607597E-002  -3.6395193274921288E-004 
  -9.1154329365544958E-005   8.8139911989803125E-005    102.0655338511643     
   0.7948717948717948        7.5949367088607597E-002  -3.0945005803385969E-004 
  -9.2526358858346510E-005   9.0212492909870333E-005    101.8720378533534     
   0.8205128205128205        7.5949367088607597E-002  -2.5476753600970752E-004 
  -9.1927203033686031E-005   9.1915060506697434E-005    101.6659577751594     
   0.8461538461538462        7.5949367088607597E-002  -2.0115230916662702E-004 
  -8.8986386404754728E-005   9.3242046361824183E-005    101.4486711469574     
   0.8717948717948718        7.5949367088607597E-002  -1.5002296274112985E-004 
  -8.3239006390260439E-005   9.4200004135427473E-005    101.2216606027235     
   0.8974358974358975        7.5949367088607597E-002  -1.0310378691007091E-004 
  -7.4110242394486258E-005   9.4791363629711419E-005    100.9865044093704     
   0.9230769230769231        7.5949367088607597E-002  -6.2147044245088550E-005 
  -6.1020820469161973E-005   9.5063876663082969E-005    100.7449434541162     
   0.9487179487179487        7.5949367088607597E-002  -2.9706875801060654E-005 
  -4.3513995678634222E-005   9.4978191438288613E-005    100.4986279362569     
   0.9743589743589743        7.5949367088607597E-002  -6.9578091464526761E-006 
  -2.2270843563784382E-005   9.4762756164160081E-005    100.2499333384156     
    1.000000000000000        7.5949367088607597E-002    0.000000000000000      
    0.000000000000000        9.3910881867457545E-005    100.0000000000000     
    0.000000000000000        0.1012658227848101         0.000000000000000      
    0.000000000000000        1.4823062454269996E-006    100.0000000000000     
   2.5641025641025640E-002   0.1012658227848101       -1.0065078157223053E-005 
   4.7208002185490225E-005   1.4306529406284902E-007    100.3252381785357     
   5.1282051282051280E-002   0.1012658227848101       -4.3404174735242964E-005 
   8.6708102394964087E-005  -1.7705675815372289E-007    100.6494273157709     
   7.6923076923076927E-002   0.1012658227848101       -8.9498364554022552E-005 
   1.1759334447153030E-004  -3.3810225390456968E-007    100.9691716508990     
   0.1025641025641026        0.1012658227848101       -1.4632890069646621E-004 
   1.3993225114791057E-004  -1.4979620816448649E-008    101.2832081743455     
   0.1282051282051282        0.1012658227848101       -2.1008884010229227E-004 
   1.5465148310198767E-004   6.9035646509829143E-007    101.5894421704669     
   0.1538461538461539        0.1012658227848101       -2.7834189197650647E-004 
   1.6282453396321102E-004   1.8286619377754727E-006    101.8861609750053     
   0.1794871794871795        0.1012658227848101       -3.4866484682627349E-004 
   1.6549780818531047E-004   3.3855274362196492E-006    102.1714798061427     
   0.2051282051282051        0.1012658227848101       -4.1907769388597555E-004 
   1.6357863296334024E-004   5.3598414446073064E-006    102.4437635389133     
   0.2307692307692308        0.1012658227848101       -4.8784088103428694E-004 
   1.5783648263389521E-004   7.7353428228497197E-006    102.7011674999814     
   0.2564102564102564        0.1012658227848101       -5.5349063035848298E-004 
   1.4891848638280380E-004   1.0492147675988734E-005    102.9420202851249     
   0.2820512820512821        0.1012658227848101       -6.1478728037305279E-004 
   1.3737424796740340E-004   1.3603695954339421E-005    103.1647201389332     
   0.3076923076923077        0.1012658227848101       -6.7069992889727363E-004 
   1.2367778719434526E-004   1.7039132349055368E-005    103.3676962525010     
   0.3333333333333333        0.1012658227848101       -7.2038204905337962E-004 
   1.0824471391675914E-004   2.0763538918721021E-005    103.5495206374418     
   0.3589743589743590        0.1012658227848101       -7.6315514080404850E-004 
   9.1445539024467967E-005   2.4738903465224931E-005    103.7088778983137     
   0.3846153846153846        0.1012658227848101       -7.9849333090360568E-004 
   7.3615074649855530E-005   2.8924717551237923E-005    103.8445971905280     
   0.4102564102564102        0.1012658227848101       -8.2601096286163630E-004 
   5.5059271926760381E-005   3.3278649696506544E-005    103.9556602338808     
   0.4358974358974359        0.1012658227848101       -8.4545163258067880E-004 
   3.6059984250762586E-005   3.7757131558943045E-005    104.0412125696831     
   0.4615384615384616        0.1012658227848101       -8.5667868617038216E-004 
   1.6878399937971494E-005   4.2315926357609819E-005    104.1005730767072     
   0.4871794871794872        0.1012658227848101       -8.5966673317405633E-004 
  -2.2424051353678126E-006   4.6910656030517856E-005    104.1332407739644     
   0.5128205128205128        0.1012658227848101       -8.5449407756119338E-004 
  -2.1075370242434957E-005   5.1497297113065513E-005    104.1388996443965     
   0.5384615384615384        0.1012658227848101       -8.4133598328915379E-004 
  -3.9407481255727222E-005   5.6032641109115132E-005    104.1174213677038     
   0.5641025641025641        0.1012658227848101       -8.2045882460433245E-004 
  -5.7037640444420061E-005   6.0474720580437425E-005    104.0688662094692     
   0.5897435897435898        0.1012658227848101       -7.9221524982125979E-004 
  -7.3774115724351992E-005   6.4783200551103468E-005    103.9934822193030     
   0.6153846153846154        0.1012658227848101       -7.5704056692656380E-004 
  -8.9431318333335513E-005   6.8919738090248854E-005    103.8917028914853     
   0.6410256410256411        0.1012658227848101       -7.1545065679627174E-004 