 VARIABLES="X" "Y" "U<sub>x" "V<sub>y" "Pressure" "Temprature"
 Zone i=           31 ,j=           31 ,k=1,f=point
    0.000000000000000         0.000000000000000         0.000000000000000      
    0.000000000000000         0.000000000000000         100.0000000000000     
   3.3333333333333333E-002    0.000000000000000         0.000000000000000      
  -2.3779071750876623E-007   1.9023310021817897E-005    100.0000000000000     
   6.6666666666666666E-002    0.000000000000000        1.1172631478133765E-007 
  -8.0720222538436592E-008   1.9024242160102771E-005    100.0000000000000     
   0.1000000000000000         0.000000000000000        1.1173245024830455E-007 
  -8.0299965342176472E-008  -6.1124359063444579E-005    100.0000000000000     
   0.1333333333333333         0.000000000000000         0.000000000000000      
   2.5800180893764186E-007  -2.3387518244615777E-004    100.0000000000000     
   0.1666666666666667         0.000000000000000         0.000000000000000      
    0.000000000000000       -4.8139575981805702E-004    100.0000000000000     
   0.2000000000000000         0.000000000000000         0.000000000000000      
    0.000000000000000       -7.7518092317950462E-004    100.0000000000000     
   0.2333333333333333         0.000000000000000         0.000000000000000      
    0.000000000000000       -1.0837608891878083E-003    100.0000000000000     
   0.2666666666666667         0.000000000000000         0.000000000000000      
    0.000000000000000       -1.3774599107189765E-003    100.0000000000000     
   0.3000000000000000         0.000000000000000         0.000000000000000      
    0.000000000000000       -1.6304417775917402E-003    100.0000000000000     
   0.3333333333333333         0.000000000000000         0.000000000000000      
    0.000000000000000       -1.8220699952739747E-003    100.0000000000000     
   0.3666666666666666         0.000000000000000         0.000000000000000      
    0.000000000000000       -1.9360511993694401E-003    100.0000000000000     
   0.4000000000000000         0.000000000000000         0.000000000000000      
    0.000000000000000       -1.9602341301734826E-003    100.0000000000000     
   0.4333333333333334         0.000000000000000         0.000000000000000      
    0.000000000000000       -1.8862938672630602E-003    100.0000000000000     
   0.4666666666666667         0.000000000000000         0.000000000000000      
    0.000000000000000       -1.7093055777535522E-003    100.0000000000000     
   0.5000000000000000         0.000000000000000         0.000000000000000      
    0.000000000000000       -1.4281990323094117E-003    100.0000000000000     
   0.5333333333333333         0.000000000000000         0.000000000000000      
    0.000000000000000       -1.0466564718270804E-003    100.0000000000000     
   0.5666666666666667         0.000000000000000         0.000000000000000      
    0.000000000000000       -5.7357616121684967E-004    100.0000000000000     
   0.6000000000000000         0.000000000000000         0.000000000000000      
    0.000000000000000       -2.6142059230670324E-005    100.0000000000000     
   0.6333333333333333         0.000000000000000         0.000000000000000      
    0.000000000000000        5.7098836839045836E-004    100.0000000000000     
   0.6666666666666666         0.000000000000000         0.000000000000000      
    0.000000000000000        1.1841685151527813E-003    100.0000000000000     
   0.7000000000000000         0.000000000000000         0.000000000000000      
    0.000000000000000        1.7706725585459428E-003    100.0000000000000     
   0.7333333333333333         0.000000000000000         0.000000000000000      
    0.000000000000000        2.2801466250347790E-003    100.0000000000000     
   0.7666666666666667         0.000000000000000         0.000000000000000      
    0.000000000000000        2.6585569166005093E-003    100.0000000000000     
   0.8000000000000000         0.000000000000000         0.000000000000000      
    0.000000000000000        2.8529405496833795E-003    100.0000000000000     
   0.8333333333333334         0.000000000000000         0.000000000000000      
    0.000000000000000        2.8191737300660201E-003    100.0000000000000     
   0.8666666666666667         0.000000000000000         0.000000000000000      
    0.000000000000000        2.5278324381735376E-003    100.0000000000000     
   0.9000000000000000         0.000000000000000         0.000000000000000      
    0.000000000000000        1.9820285571674097E-003    100.0000000000000     
   0.9333333333333334         0.000000000000000         0.000000000000000      
    0.000000000000000        1.2216355781229421E-003    100.0000000000000     
   0.9666666666666667         0.000000000000000         0.000000000000000      
    0.000000000000000        4.5239630573557795E-004    100.0000000000000     
    1.000000000000000         0.000000000000000         0.000000000000000      
    0.000000000000000        1.2210895434772054E-004    100.0000000000000     
   1.1400671444188958E-002   3.1323087359530280E-002  -3.7241586581007557E-008 
   5.1913590342401600E-008  -1.8775693811032971E-005    100.0000000000000     
   4.4734004777522290E-002   3.1323087359530280E-002   1.8120003245335945E-005 
  -2.5779158299903894E-005  -1.8584748571755117E-008    100.8293729485172     
   7.8067338110855616E-002   3.1323087359530280E-002   9.0862844690516235E-005 
  -4.1712136034869170E-005  -2.8852394696367699E-005    101.9640723529492     
   0.1114006714441890        3.1323087359530280E-002   1.4471095940893618E-004 
  -2.0217564327175230E-005  -1.1417881442955222E-004    103.3112382774622     
   0.1447340047775223        3.1323087359530280E-002   9.8858828628951121E-005 
   3.3701047761052893E-005  -2.5793477888370176E-004    104.8100962829845     
   0.1780673381108556        3.1323087359530280E-002  -1.1037030043062131E-004 
   1.0903186505658751E-004  -4.4692040392502994E-004    106.4196834660158     
   0.2114006714441890        3.1323087359530280E-002  -5.2027307684070895E-004 
   1.9450909246102637E-004  -6.6120435311825012E-004    108.1122504330068     
   0.2447340047775223        3.1323087359530280E-002  -1.1434936374761504E-003 
   2.8071028704506430E-004  -8.7906421168625342E-004    109.8618166337176     
   0.2780673381108556        3.1323087359530280E-002  -1.9724778205712657E-003 
   3.6033831901312167E-004  -1.0794937613043422E-003    111.6671055245884     
   0.3114006714441889        3.1323087359530280E-002  -2.9841094535123787E-003 
   4.2815803528470256E-004  -1.2441826964373175E-003    113.5160557937378     
   0.3447340047775223        3.1323087359530280E-002  -4.1438981545174509E-003 
   4.8033877427135018E-004  -1.3578049155767017E-003    115.3991383198680     
   0.3780673381108556        3.1323087359530280E-002  -5.4091888087833767E-003 
   5.1432357000574705E-004  -1.4085018581980618E-003    117.2977192164154     
   0.4114006714441890        3.1323087359530280E-002  -6.7314442034648635E-003 
   5.2807895163602472E-004  -1.3877786413656024E-003    119.1649645153744     
   0.4447340047775223        3.1323087359530280E-002  -8.0575887485141700E-003 
   5.2012451977657016E-004  -1.2900896190027162E-003    120.9575276221579     
   0.4780673381108556        3.1323087359530280E-002  -9.3309025797372845E-003 
   4.8900716592331661E-004  -1.1135921465315925E-003    122.6257697049506     
   0.5114006714441890        3.1323087359530280E-002  -1.0491784564757549E-002 
   4.3359297949943935E-004  -8.5947291103197546E-004    124.0836694968315     
   0.5447340047775223        3.1323087359530280E-002  -1.1478478521020095E-002 
   3.5321404272614128E-004  -5.3357722921633117E-004    125.3653074770551     
   0.5780673381108556        3.1323087359530280E-002  -1.2229435201935574E-002 
   2.4842343409624268E-004  -1.4708651155636727E-004    126.3532079685222     
   0.6114006714441890        3.1323087359530280E-002  -1.2686492714931517E-002 
   1.2083251264690813E-004   2.8293743494954348E-004    126.8599721312807     
   0.6447340047775223        3.1323087359530280E-002  -1.2798247474109171E-002 
  -2.6076402661623061E-005   7.3318491286993210E-004    127.5638356524173     
   0.6780673381108556        3.1323087359530280E-002  -1.2525962451177855E-002 
  -1.8607797987000226E-004   1.1735779211225874E-003    127.3559452699073     
   0.7114006714441890        3.1323087359530280E-002  -1.1849892930905031E-002 
  -3.5037886048365317E-004   1.5688315477694883E-003    126.9583550465512     
   0.7447340047775223        3.1323087359530280E-002  -1.0775758588289138E-002 
  -5.0693609433859817E-004   1.8796201888918703E-003    126.1562217556027     
   0.7780673381108557        3.1323087359530280E-002  -9.3426262518501689E-003 
  -6.4090358093464692E-004   2.0674560149974504E-003    124.9185168520912     
   0.8114006714441890        3.1323087359530280E-002  -7.6268966828502609E-003 
  -7.3586380014881744E-004   2.0983143288672268E-003    123.2650988862926     
   0.8447340047775224        3.1323087359530280E-002  -5.7435978466966880E-003 
  -7.7489697681812938E-004   1.9516823383944198E-003    121.0116674882700     
   0.8780673381108557        3.1323087359530280E-002  -3.8527864116961936E-003 
  -7.3902643641074808E-004   1.6228419935404451E-003    118.3125964578147     
   0.9114006714441890        3.1323087359530280E-002  -2.1413686742210837E-003 
  -6.1621507252318292E-004   1.1493811108724186E-003    115.0154511057389     
   0.9447340047775223        3.1323087359530280E-002  -8.3246875418259761E-004 
  -3.8418553924319903E-004   5.9163576135855072E-004    111.0742794532490     
   0.9780673381108557        3.1323087359530280E-002  -9.2027293244180544E-005 
  -6.9437004106780487E-005   1.1652528105845568E-004    106.3475587635647     
    1.011400671444189        3.1323087359530280E-002   1.1247427540355401E-006 
   1.2963507675645346E-006  -2.0354412857104742E-004    100.0000000000000     
   2.2801342888377915E-002   6.2646174719060560E-002   1.3372163582063430E-007 
  -2.6867592455137401E-007  -1.9440946422260403E-005    100.0000000000000     
   5.6134676221711248E-002   6.2646174719060560E-002   8.5381823460657882E-006 
  -9.9973095395103194E-005   2.9299717926708176E-005    101.9613765085038     
   8.9468009555044581E-002   6.2646174719060560E-002   6.6294422629661207E-005 
  -9.3059401634918416E-005  -2.7109456263326042E-007    104.4046394078706     
   0.1228013428883779        6.2646174719060560E-002   1.8155689717603836E-005 
   5.9373716589903256E-005  -8.2499350725858970E-005    107.2241881943252     
   0.1561346762217112        6.2646174719060560E-002  -2.5383640993597667E-004 
   3.2937184023626757E-004  -2.1741240340882793E-004    110.3214773795101     
   0.1894680095550446        6.2646174719060560E-002  -8.4258511101158173E-004 
   6.7343877738239863E-004  -3.8671990291202010E-004    113.6245908785791     
   0.2228013428883779        6.2646174719060560E-002  -1.7975566819766722E-003 
   1.0483052212861064E-003  -5.7230000219913647E-004    117.0690326698659     
   0.2561346762217113        6.2646174719060560E-002  -3.1304670535292510E-003 
   1.4169786307064588E-003  -7.5476800010278145E-004    120.6237593119989     
   0.2894680095550446        6.2646174719060560E-002  -4.8203599022700536E-003 
   1.7504264032275501E-003  -9.1654889908406804E-004    124.2681691176929     
   0.3228013428883779        6.2646174719060560E-002  -6.8205852902046681E-003 
   2.0269379201035137E-003  -1.0426689727343536E-003    127.9976399695405     
   0.3561346762217112        6.2646174719060560E-002  -9.0651761495418731E-003 
   2.2308033113456762E-003  -1.1210607861888242E-003    131.7942678420343     
   0.3894680095550446        6.2646174719060560E-002  -1.1473752345719885E-002 
   2.3505011906127028E-003  -1.1429434018619610E-003    135.6013531559484     
   0.4228013428883780        6.2646174719060560E-002  -1.3955475493327244E-002 
   2.3775851874840701E-003  -1.1016673962689334E-003    139.3838468322641     
   0.4561346762217113        6.2646174719060560E-002  -1.6410705953115664E-002 
   2.3052137962141948E-003  -9.9408084020809651E-004    142.8966293012712     
   0.4894680095550446        6.2646174719060560E-002  -1.8734630719267360E-002 
   2.1281503072537434E-003  -8.1928941517736597E-004    146.1255867770983     
   0.5228013428883779        6.2646174719060560E-002  -2.0817659297545317E-002 
   1.8420500770017459E-003  -5.7982518986170563E-004    149.0957014460408     
   0.5561346762217112        6.2646174719060560E-002  -2.2548078700138488E-002 
   1.4468299345080783E-003  -2.8244140338832218E-004    151.5628525958094     
   0.5894680095550445        6.2646174719060560E-002  -2.3819404880456887E-002 
   9.4728166989290375E-004   6.1539084403947314E-005    153.3028449884697     
   0.6228013428883779        6.2646174719060560E-002  -2.4531171572537477E-002 
   3.5421903703972937E-004   4.3515945703836376E-004    154.5173227041700     
   0.6561346762217112        6.2646174719060560E-002  -2.4600663624380674E-002 
  -3.1261641359632607E-004   8.1638867124511822E-004    154.9997048582735     
   0.6894680095550445        6.2646174719060560E-002  -2.3969505216678570E-002 
  -1.0224183406596652E-003   1.1770309373195639E-003    154.8198813249556     
   0.7228013428883778        6.2646174719060560E-002  -2.2615791823986171E-002 
  -1.7326031119941714E-003   1.4851590727174651E-003    153.7802689127078     
   0.7561346762217112        6.2646174719060560E-002  -2.0565559916732763E-002 
  -2.3892709842023535E-003   1.7060264398902872E-003    151.9995474045024     
   0.7894680095550446        6.2646174719060560E-002  -1.7898870380631857E-002 
  -2.9287284740909221E-003   1.8061590728758420E-003    149.4142302930502     
   0.8228013428883779        6.2646174719060560E-002  -1.4758164851758493E-002 
  -3.2825451119754432E-003   1.7594427440297544E-003    145.7188032718759     
   0.8561346762217112        6.2646174719060560E-002  -1.1349577505984374E-002 
  -3.3827237899575909E-003   1.5544276747301003E-003    141.1576840633594     
   0.8894680095550446        6.2646174719060560E-002  -7.9391556683433909E-003 
  -3.1645804384862978E-003   1.1899782976269241E-003    135.5143179366361     
   0.9228013428883779        6.2646174719060560E-002  -4.8196799941365364E-003 
  -2.5953283676167639E-003   7.1269690024009945E-004    128.7454985662833     
   0.9561346762217112        6.2646174719060560E-002  -2.3128120148846296E-003 
  -1.6758208623010396E-003   1.4056331415572139E-004    120.7090134744446     
   0.9894680095550446        6.2646174719060560E-002  -5.9364198042506026E-004 
  -6.3096671748376603E-004  -3.6615474401020305E-004    111.2632632665073     
    1.022801342888378        6.2646174719060560E-002  -4.1076670872595969E-007 
  -1.1484179251152401E-006  -9.9100616734025039E-004    100.0000000000000     
   3.4202014332566873E-002   9.3969262078590840E-002   3.8061679652305427E-008 
  -1.3535550464033836E-007   6.0978209904702396E-005    100.0000000000000     
   6.7535347665900206E-002   9.3969262078590840E-002  -2.9768293500173621E-005 
  -1.4444569359972441E-004   1.1571694376368976E-004    103.3158570963113     
   0.1008686809992336        9.3969262078590840E-002  -6.1662964805630780E-005 
   5.1116605263554962E-006   7.9948293462707112E-005    107.2592043199622     
   0.1342020143325669        9.3969262078590840E-002  -3.1271913752106885E-004 
   4.3843663007188036E-004  -5.4957139157781661E-006    111.7034258294201     
   0.1675353476659002        9.3969262078590840E-002  -9.2678032660849382E-004 
   1.0795911496288980E-003  -1.3490586381014326E-004    116.5271561079055     
   0.2008686809992335        9.3969262078590840E-002  -2.0067804263154678E-003 
   1.8410260717324149E-003  -2.8726383993217530E-004    121.6157795720768     
   0.2342020143325669        9.3969262078590840E-002  -3.5996145361782608E-003 
   2.6387405528461865E-003  -4.4645010333442319E-004    126.9093640347006     
   0.2675353476659002        9.3969262078590840E-002  -5.7058099376939122E-003 
   3.4020052540168397E-003  -5.9602646899048787E-004    132.2810741998368     
   0.3008686809992335        9.3969262078590840E-002  -8.2851757394806196E-003 
   4.0748704542931590E-003  -7.2232761603815813E-004    137.8046211392991     
   0.3342020143325669        9.3969262078590840E-002  -1.1266454849300918E-002 
   4.6150788295797347E-003  -8.1423513856496144E-004    143.3739597725930     
   0.3675353476659002        9.3969262078590840E-002  -1.4552566847421516E-002 
   4.9913047795533648E-003  -8.6296022436083857E-004    149.0678679563934     
   0.4008686809992335        9.3969262078590840E-002  -1.8029601317607790E-002 
   5.1814945526895192E-003  -8.6208870889211125E-004    154.9151551311234     
   0.4342020143325669        9.3969262078590840E-002  -2.1568102771473759E-002 
   5.1668589822574489E-003  -8.0777286920120570E-004    160.3638151410694     
   0.4675353476659002        9.3969262078590840E-002  -2.5031230831268098E-002 
   4.9342121439333378E-003  -6.9852121868779510E-004    166.0543152833502     
   0.5008686809992335        9.3969262078590840E-002  -2.8268554407578902E-002 
   4.4735659829057616E-003  -5.3531130234400011E-004    170.3659885150213     
   0.5342020143325669        9.3969262078590840E-002  -3.1131466306188904E-002 
   3.7810132514133473E-003  -3.1904991093020043E-004    175.0969581243728     
   0.5675353476659002        9.3969262078590840E-002  -3.3474679935770392E-002 
   2.8596470057548535E-003  -5.7577320863678483E-005    178.3652564725451     
   0.6008686809992335        9.3969262078590840E-002  -3.5148162147415687E-002 
   1.7248287280854234E-003   2.3729003424015254E-004    181.0375332584796     
   0.6342020143325668        9.3969262078590840E-002  -3.6028248212446434E-002 
   4.0590886116788675E-004   5.5041102436162827E-004    182.4990585407401     
   0.6675353476659002        9.3969262078590840E-002  -3.6006237873675274E-002 
  -1.0488975659308558E-003   8.6121981531083792E-004    182.9617241064353     
   0.7008686809992335        9.3969262078590840E-002  -3.5015215045135252E-002 
  -2.5679956316686137E-003   1.1436842731745299E-003    182.3281275147871     
   0.7342020143325668        9.3969262078590840E-002  -3.3032595871258452E-002 
  -4.0547159961941475E-003   1.3694305234318947E-003    180.9542418717520     
   0.7675353476659002        9.3969262078590840E-002  -3.0107994965389389E-002 
  -5.3951844969773967E-003   1.5060776621595099E-003    177.7390739510825     
   0.8008686809992336        9.3969262078590840E-002  -2.6347977073042688E-002 
  -6.4604996225673820E-003   1.5248999414642546E-003    173.3064223384484     
   0.8342020143325669        9.3969262078590840E-002  -2.1947147550132638E-002 
  -7.1146548589484824E-003   1.4058769606828461E-003    167.9967860965914     
   0.8675353476659002        9.3969262078590840E-002  -1.7167071690265486E-002 
  -7.2253958654487490E-003   1.1412088257931224E-003    160.6200167075956     
   0.9008686809992336        9.3969262078590840E-002  -1.2350419509463124E-002 
  -6.6943287393890121E-003   7.2785303301471790E-004    152.1899711405734     
   0.9342020143325669        9.3969262078590840E-002  -7.8479271412794319E-003 
  -5.4961079607568891E-003   2.1206924894941396E-004    141.6798046773336     
   0.9675353476659002        9.3969262078590840E-002  -4.0602961407143982E-003 
  -3.7133076476501005E-003  -4.2255117742050934E-004    129.5130465283140     
    1.000868680999234        9.3969262078590840E-002  -1.2335119872933795E-003 
  -1.7147275417194424E-003  -1.0089563495792556E-003    115.7142469481128     
    1.034202014332567        9.3969262078590840E-002    0.000000000000000      
    0.000000000000000       -1.9054297873241895E-003    100.0000000000000     
   4.5602685776755830E-002   0.1252923494381211         0.000000000000000      
    0.000000000000000        2.3886635338987792E-004    100.0000000000000     
   7.8936019110089156E-002   0.1252923494381211       -6.6098654016796398E-005 
  -8.1379202646826099E-005   2.6405242218441311E-004    104.8710104778003     
   0.1122693524434225        0.1252923494381211       -2.3688338852389542E-004 
   3.6694599155980641E-004   2.1309668956243782E-004    110.5002497548675     
   0.1456026857767558        0.1252923494381211       -7.5735400521010395E-004 
   1.2491569052927841E-003   1.1185356415213788E-004    116.7342027790661     
   0.1789360191100892        0.1252923494381211       -1.7922223637340748E-003 
   2.4237387414562596E-003  -2.4565794794350149E-005    123.4244120411232     
   0.2122693524434225        0.1252923494381211       -3.4423092773098228E-003 
   3.7473554234899232E-003  -1.7545627066090097E-004    130.4556368809003     
   0.2456026857767558        0.1252923494381211       -5.7429579860233497E-003 
   5.0888630210208907E-003  -3.2543753728984682E-004    137.6177186060568     
   0.2789360191100891        0.1252923494381211       -8.6759836901344062E-003 
   6.3393569669187091E-003  -4.6052322455800279E-004    144.9767243908562     
   0.3122693524434225        0.1252923494381211       -1.2177922320844163E-002 
   7.4133039022533515E-003  -5.7018230354327073E-004    152.4242826088554     
   0.3456026857767558        0.1252923494381211       -1.6148863429877914E-002 
   8.2459298029216310E-003  -6.4552774215298914E-004    159.4447801828864     
   0.3789360191100891        0.1252923494381211       -2.0465917503937659E-002 
   8.7886833448127012E-003  -6.8027076670634811E-004    168.0769284016420     
   0.4122693524434224        0.1252923494381211       -2.4977374494666842E-002 
   9.0045915811959153E-003  -6.7319839263169871E-004    175.4047201034890     
   0.4456026857767559        0.1252923494381211       -2.9528634121172501E-002 
   8.8681680597263012E-003  -6.1885673280918842E-004    183.0745668619362     
   0.4789360191100892        0.1252923494381211       -3.3941570511404430E-002 
   8.3553327989498941E-003  -5.1685034655113221E-004    188.9255086881215     
   0.5122693524434225        0.1252923494381211       -3.8036162361695644E-002 
   7.4555066337229558E-003  -3.6845182125882283E-004    196.8342952879095     
   0.5456026857767559        0.1252923494381211       -4.1630017838584631E-002 
   6.1682437346005509E-003  -1.7579790500235829E-004    201.7267978256801     
   0.5789360191100892        0.1252923494381211       -4.4537834145864832E-002 
   4.5037669973682993E-003   5.6744998998372962E-005    206.2275348625234     
   0.6122693524434225        0.1252923494381211       -4.6600048601086359E-002 
   2.4934301731454507E-003   3.1487356913933675E-004    209.2338628796219     
   0.6456026857767558        0.1252923494381211       -4.7648050394993563E-002 
   1.9433216232313995E-004   5.8646965500203313E-004    210.9437093857943     
   0.6789360191100892        0.1252923494381211       -4.7563624173472693E-002 
  -2.3029534851402244E-003   8.5338519438105077E-004    211.2562559561425     
   0.7122693524434225        0.1252923494381211       -4.6264335129645555E-002 
  -4.8697443337617340E-003   1.0914356218190105E-003    210.2657461763924     
   0.7456026857767558        0.1252923494381211       -4.3736585444011010E-002 
  -7.3470510622120405E-003   1.2680364632649114E-003    207.6299801606508     
   0.7789360191100891        0.1252923494381211       -4.0014956136665711E-002 
  -9.5425414914523509E-003   1.3523023402796787E-003    203.4767528764143     
   0.8122693524434226        0.1252923494381211       -3.5239814434985542E-002 
  -1.1249162410244463E-002   1.3217733887773708E-003    198.3150653703400     
   0.8456026857767559        0.1252923494381211       -2.9625374914887176E-002 
  -1.2248371549789840E-002   1.1554269318014650E-003    188.7509768637842     
   0.8789360191100892        0.1252923494381211       -2.3489528752608079E-002 
  -1.2349099708164106E-002   8.3487791210705604E-004    180.6423275678929     
   0.9122693524434226        0.1252923494381211       -1.7213844638440674E-002 
  -1.1415219727601225E-002   3.5681709496067425E-004    168.4568537753196     
   0.9456026857767559        0.1252923494381211       -1.1232332064855974E-002 
  -9.4513803905025701E-003  -2.3442889088639714E-004    154.1950990009302     
   0.9789360191100892        0.1252923494381211       -6.0427141617769185E-003 
  -6.5987084585130886E-003  -9.8474445991922279E-004    137.9850794737510     
    1.012269352443423        0.1252923494381211       -2.0142527119778163E-003 
  -3.2957155591375686E-003  -1.6986412888727275E-003    120.0102457615322     
    1.045602685776756        0.1252923494381211         0.000000000000000      
    0.000000000000000       -2.8318924227747851E-003    100.0000000000000     
   5.7003357220944781E-002   0.1566154367976514         0.000000000000000      
    0.000000000000000        5.0378798374738965E-004    100.0000000000000     
   9.0336690554278121E-002   0.1566154367976514       -6.8388166211703238E-005 
   1.5850505220809530E-004   4.6346417695615179E-004    106.6196147197852     
   0.1236700238876115        0.1566154367976514       -3.9822915586176821E-004 
   1.0971778964153896E-003   3.8193936997715349E-004    114.1196735670406     
   0.1570033572209448        0.1566154367976514       -1.2304003447264845E-003 
   2.6106414074495887E-003   2.4817879320117379E-004    122.3038536359055     
   0.1903366905542781        0.1566154367976514       -2.7437790555439128E-003 
   4.4795189371472626E-003   9.1855077932362068E-005    130.9835813063305     
   0.2236700238876114        0.1566154367976514       -5.0261002742386478E-003 
   6.4961911624400320E-003  -7.0030905351441228E-005    139.9865322301930     
   0.2570033572209448        0.1566154367976514       -8.0942890141139888E-003 
   8.4789791489077136E-003  -2.2287488197669306E-004    149.1709965881797     
   0.2903366905542781        0.1566154367976514       -1.1905476848534765E-002 
   1.0280036076590704E-002  -3.5544038581817455E-004    158.4302573699384     
   0.3236700238876115        0.1566154367976514       -1.6368514115534697E-002 
   1.1783810707342269E-002  -4.5975813461453702E-004    167.5587446946481     
   0.3570033572209448        0.1566154367976514       -2.1357998420645636E-002 
   1.2904288103724664E-002  -5.3389359928154509E-004    176.9315273716230     
   0.3903366905542781        0.1566154367976514       -2.6712115850293146E-002 
   1.3572076034356000E-002  -5.6583220208140646E-004    185.9352469287095     
   0.4236700238876114        0.1566154367976514       -3.2270258051979799E-002 
   1.3750097518279358E-002  -5.6191014001912411E-004    196.9273317667752     
   0.4570033572209448        0.1566154367976514       -3.7833195282030954E-002 
   1.3389588653718169E-002  -5.1544613342677952E-004    205.5177989735512     
   0.4903366905542781        0.1566154367976514       -4.3194400252341884E-002 
   1.2464576815236298E-002  -4.2460089865309971E-004    215.7641745554095     
   0.5236700238876114        0.1566154367976514       -4.8155524206226964E-002 
   1.0969469719079214E-002  -2.9380430936059990E-004    222.7586569513039     
   0.5570033572209447        0.1566154367976514       -5.2496077119150809E-002 
   8.8990979474011661E-003  -1.2335587477899505E-004    229.6267859125677     
   0.5903366905542781        0.1566154367976514       -5.6015345738203805E-002 
   6.2858408278827519E-003   8.0689482465552020E-005    234.2497192601051     
   0.6236700238876114        0.1566154367976514       -5.8500827602620958E-002 
   3.1788839877586552E-003   3.1224624328909516E-004    237.6191737602255     
   0.6570033572209447        0.1566154367976514       -5.9793598963938016E-002 
  -3.2912497802089162E-004   5.5696570127370759E-004    239.5432695192978     
   0.6903366905542780        0.1566154367976514       -5.9736011551047352E-002 
  -4.0940514941907114E-003   7.9852253874522993E-004    240.3577663923018     
   0.7236700238876114        0.1566154367976514       -5.8235503310295596E-002 
  -7.9270577757939061E-003   1.0057078920966426E-003    238.9414644306187     
   0.7570033572209447        0.1566154367976514       -5.5236963236720366E-002 
  -1.1585264964658157E-002   1.1521338492894058E-003    235.6728259409597     
   0.7903366905542780        0.1566154367976514       -5.0800294714919703E-002 
  -1.4801220601378836E-002   1.2063047911495929E-003    229.3613131205580     
   0.8236700238876115        0.1566154367976514       -4.5029814213630857E-002 
  -1.7266462319249647E-002   1.1458549917818311E-003    221.2790217930831     
   0.8570033572209448        0.1566154367976514       -3.8184601340883313E-002 
  -1.8677996927710373E-002   9.3683837760493880E-004    213.1121940681423     
   0.8903366905542781        0.1566154367976514       -3.0598395082669521E-002 
  -1.8762302953792939E-002   5.5728474548914482E-004    200.1552097841372     
   0.9236700238876114        0.1566154367976514       -2.2743052116493426E-002 
  -1.7364663166212550E-002   3.9788609980837211E-006    184.5937871008837     
   0.9570033572209448        0.1566154367976514       -1.5111985953354851E-002 
  -1.4490694690566125E-002  -6.8733109690898215E-004    166.6195426997568     
   0.9903366905542781        0.1566154367976514       -8.3616850739500446E-003 
  -1.0320962985492777E-002  -1.5768416207755968E-003    146.4793329113696     
    1.023670023887612        0.1566154367976514       -2.9697548311984623E-003 
  -5.3391542713764123E-003  -2.4285451384974269E-003    124.3561945139672     
    1.057003357220945        0.1566154367976514         0.000000000000000      