 VARIABLES="X" "Y" "U<sub>x" "V<sub>y" "Pressure" "Temprature"
 Zone i=           40 ,j=           80 ,k=1,f=point
    0.000000000000000         0.000000000000000         0.000000000000000      
    0.000000000000000         0.000000000000000         100.0000000000000     
   2.5641025641025640E-002    0.000000000000000         0.000000000000000      
   1.2680549314332503E-009  -1.3187784030784704E-007    100.0000000000000     
   5.1282051282051280E-002    0.000000000000000       -6.2600205292746264E-010 
   2.1149541698465673E-010  -4.7791772690600374E-007    100.0000000000000     
   7.6923076923076927E-002    0.000000000000000       -2.2685966829548392E-009 
   7.6589415469788917E-010  -8.1032064688423213E-007    100.0000000000000     
   0.1025641025641026         0.000000000000000         0.000000000000000      
   1.2985893977358755E-009  -9.8862903124284446E-007    100.0000000000000     
   0.1282051282051282         0.000000000000000         0.000000000000000      
    0.000000000000000       -9.6079854504435011E-007    100.0000000000000     
   0.1538461538461539         0.000000000000000         0.000000000000000      
    0.000000000000000       -7.0403606451313437E-007    100.0000000000000     
   0.1794871794871795         0.000000000000000         0.000000000000000      
    0.000000000000000       -2.1097425624733033E-007    100.0000000000000     
   0.2051282051282051         0.000000000000000         0.000000000000000      
    0.000000000000000        5.1742058656162482E-007    100.0000000000000     
   0.2307692307692308         0.000000000000000         0.000000000000000      
    0.000000000000000        1.4744577803259059E-006    100.0000000000000     
   0.2564102564102564         0.000000000000000         0.000000000000000      
    0.000000000000000        2.6496589439100709E-006    100.0000000000000     
   0.2820512820512821         0.000000000000000         0.000000000000000      
    0.000000000000000        4.0295889463994758E-006    100.0000000000000     
   0.3076923076923077         0.000000000000000         0.000000000000000      
    0.000000000000000        5.5984606517283030E-006    100.0000000000000     
   0.3333333333333333         0.000000000000000         0.000000000000000      
    0.000000000000000        7.3385033703790204E-006    100.0000000000000     
   0.3589743589743590         0.000000000000000         0.000000000000000      
    0.000000000000000        9.2302576736792972E-006    100.0000000000000     
   0.3846153846153846         0.000000000000000         0.000000000000000      
    0.000000000000000        1.1252817089785316E-005    100.0000000000000     
   0.4102564102564102         0.000000000000000         0.000000000000000      
    0.000000000000000        1.3384053082659505E-005    100.0000000000000     
   0.4358974358974359         0.000000000000000         0.000000000000000      
    0.000000000000000        1.5600832772260872E-005    100.0000000000000     
   0.4615384615384616         0.000000000000000         0.000000000000000      
    0.000000000000000        1.7879237543369109E-005    100.0000000000000     
   0.4871794871794872         0.000000000000000         0.000000000000000      
    0.000000000000000        2.0194784589867895E-005    100.0000000000000     
   0.5128205128205128         0.000000000000000         0.000000000000000      
    0.000000000000000        2.2522651962759853E-005    100.0000000000000     
   0.5384615384615384         0.000000000000000         0.000000000000000      
    0.000000000000000        2.4837906088043398E-005    100.0000000000000     
   0.5641025641025641         0.000000000000000         0.000000000000000      
    0.000000000000000        2.7115730186772493E-005    100.0000000000000     
   0.5897435897435898         0.000000000000000         0.000000000000000      
    0.000000000000000        2.9331651781666268E-005    100.0000000000000     
   0.6153846153846154         0.000000000000000         0.000000000000000      
    0.000000000000000        3.1461767737060627E-005    100.0000000000000     
   0.6410256410256411         0.000000000000000         0.000000000000000      
    0.000000000000000        3.3482965881924656E-005    100.0000000000000     
   0.6666666666666666         0.000000000000000         0.000000000000000      
    0.000000000000000        3.5373143784792085E-005    100.0000000000000     
   0.6923076923076923         0.000000000000000         0.000000000000000      
    0.000000000000000        3.7111427100543000E-005    100.0000000000000     
   0.7179487179487180         0.000000000000000         0.000000000000000      
    0.000000000000000        3.8678395187422518E-005    100.0000000000000     
   0.7435897435897436         0.000000000000000         0.000000000000000      
    0.000000000000000        4.0056325543842335E-005    100.0000000000000     
   0.7692307692307693         0.000000000000000         0.000000000000000      
    0.000000000000000        4.1229489024364515E-005    100.0000000000000     
   0.7948717948717948         0.000000000000000         0.000000000000000      
    0.000000000000000        4.2184530503992923E-005    100.0000000000000     
   0.8205128205128205         0.000000000000000         0.000000000000000      
    0.000000000000000        4.2911062219404863E-005    100.0000000000000     
   0.8461538461538462         0.000000000000000         0.000000000000000      
    0.000000000000000        4.3402561012875236E-005    100.0000000000000     
   0.8717948717948718         0.000000000000000         0.000000000000000      
    0.000000000000000        4.3658133042939717E-005    100.0000000000000     
   0.8974358974358975         0.000000000000000         0.000000000000000      
    0.000000000000000        4.3685419581992766E-005    100.0000000000000     
   0.9230769230769231         0.000000000000000         0.000000000000000      
    0.000000000000000        4.3507543578091564E-005    100.0000000000000     
   0.9487179487179487         0.000000000000000         0.000000000000000      
    0.000000000000000        4.3177027803131708E-005    100.0000000000000     
   0.9743589743589743         0.000000000000000         0.000000000000000      
    0.000000000000000        4.2817149799910066E-005    100.0000000000000     
    1.000000000000000         0.000000000000000         0.000000000000000      
    0.000000000000000        4.2656210911581493E-005    100.0000000000000     
    0.000000000000000        2.5316455696202531E-002   2.0866711040213118E-010 
  -2.1086889593535964E-010   1.2901587107291014E-007    100.0000000000000     
   2.5641025641025640E-002   2.5316455696202531E-002  -6.2669599112511485E-007 
   6.3083379455402259E-007  -2.3540216810201095E-009    100.0655262950294     
   5.1282051282051280E-002   2.5316455696202531E-002  -4.6246898455140680E-006 
   2.3285946735329443E-006  -1.6517342120011853E-007    100.1307217029881     
   7.6923076923076927E-002   2.5316455696202531E-002  -1.2138073854288677E-005 
   3.8330756175635392E-006  -3.0788347406540675E-007    100.1949433673513     
   0.1025641025641026        2.5316455696202531E-002  -2.2620233782990461E-005 
   4.9370597780760196E-006  -3.3430654014290116E-007    100.2580039313249     
   0.1282051282051282        2.5316455696202531E-002  -3.5247978845072356E-005 
   5.7012199923554898E-006  -2.0164837722798762E-007    100.3195511621460     
   0.1538461538461539        2.5316455696202531E-002  -4.9323006525806021E-005 
   6.1732530700456585E-006   1.2172897462212802E-007    100.3792307658104     
   0.1794871794871795        2.5316455696202531E-002  -6.4235001441022293E-005 
   6.4092303577344177E-006   6.4878086907362494E-007    100.4366767185155     
   0.2051282051282051        2.5316455696202531E-002  -7.9483643698373491E-005 
   6.4505961973075477E-006   1.3845316405401256E-006    100.4915299065741     
   0.2307692307692308        2.5316455696202531E-002  -9.4649100222812262E-005 
   6.3311780199359566E-006   2.3267308876838059E-006    100.5434408117738     
   0.2564102564102564        2.5316455696202531E-002  -1.0938072061475123E-004 
   6.0770984190728831E-006   3.4685810072597820E-006    100.5920729246165     
   0.2820512820512821        2.5316455696202531E-002  -1.2338212064878776E-004 
   5.7094885652180653E-006   4.7995471541221118E-006    100.6371046675038     
   0.3076923076923077        2.5316455696202531E-002  -1.3640224879503789E-004 
   5.2457002906344561E-006   6.3062575891723224E-006    100.6782321475869     
   0.3333333333333333        2.5316455696202531E-002  -1.4822808563896963E-004 
   4.7005356438601280E-006   7.9729858553728527E-006    100.7151712233660     
   0.3589743589743590        2.5316455696202531E-002  -1.5867982598205622E-004 
   4.0870176243052440E-006   9.7820716682407429E-006    100.7476602065631     
   0.3846153846153846        2.5316455696202531E-002  -1.6760742438271992E-004 
   3.4169815561721621E-006   1.1714237036119924E-005    100.7754620629807     
   0.4102564102564102        2.5316455696202531E-002  -1.7488830419153443E-004 
   2.7014736411443741E-006   1.3748869923044327E-005    100.7983667569645     
   0.4358974358974359        2.5316455696202531E-002  -1.8042582228366971E-004 
   1.9510324476242503E-006   1.5864280516098505E-005    100.8161933694058     
   0.4615384615384616        2.5316455696202531E-002  -1.8414828760970672E-004 
   1.1758790589637910E-006   1.8037947261397763E-005    100.8287920802594     
   0.4871794871794872        2.5316455696202531E-002  -1.8600835245065589E-004 
   3.8604710788923063E-007   2.0246756906970063E-005    100.8360459310907     
   0.5128205128205128        2.5316455696202531E-002  -1.8598266658162782E-004 
  -4.0852736965893160E-007   2.2467242677361984E-005    100.8378723620042     
   0.5384615384615384        2.5316455696202531E-002  -1.8407172121440721E-004 
  -1.1979383060075005E-006   2.4675821736663317E-005    100.8342244952534     
   0.5641025641025641        2.5316455696202531E-002  -1.8029984936554996E-004 
  -1.9722491875557906E-006   2.6849032588575671E-005    100.8250921498777     
   0.5897435897435898        2.5316455696202531E-002  -1.7471538273152953E-004 
  -2.7214252247449387E-006   2.8963772566318743E-005    100.8105025729991     
   0.6153846153846154        2.5316455696202531E-002  -1.6739099907354130E-004 
  -3.4352430871143040E-006   3.0997536042945886E-005    100.7905208785829     
   0.6410256410256411        2.5316455696202531E-002  -1.5842433260355340E-004 
  -4.1031604779469943E-006   3.2928654673991790E-005    100.7652501861952     
   0.6666666666666666        2.5316455696202531E-002  -1.4793895909778664E-004 
  -4.7141253954718730E-006   3.4736543537458539E-005    100.7348314617180     
   0.6923076923076923        2.5316455696202531E-002  -1.3608593022244704E-004 
  -5.2562953223194421E-006   3.6401958369379589E-005    100.6994430546092     
   0.7179487179487180        2.5316455696202531E-002  -1.2304607255383715E-004 
  -5.7166381647695857E-006   3.7907278761452210E-005    100.6592999635090     
   0.7435897435897436        2.5316455696202531E-002  -1.0903341191942751E-004 
  -6.0803492985454553E-006   3.9236829024267937E-005    100.6146528128057     
   0.7692307692307693        2.5316455696202531E-002  -9.4300030560380156E-005 
  -6.3300762870764962E-006   4.0377291156567148E-005    100.5657866401209     
   0.7948717948717948        2.5316455696202531E-002  -7.9143141580724871E-005 
  -6.4447463872945237E-006   4.1318215106715920E-005    100.5130195421591     
   0.8205128205128205        2.5316455696202531E-002  -6.3914359189899976E-005 
  -6.3982922459112575E-006   4.2052848248641673E-005    100.4567012940482     
   0.8461538461538462        2.5316455696202531E-002  -4.9033085060553154E-005 
  -6.1573517548341968E-006   4.2579137925141360E-005    100.3972126566156     
   0.8717948717948718        2.5316455696202531E-002  -3.5000723971818574E-005 
  -5.6807527827474438E-006   4.2901906296234764E-005    100.3349645969153     
   0.8974358974358975        2.5316455696202531E-002  -2.2419692048281626E-005 
  -4.9157223020817404E-006   4.3034936869798247E-005    100.2704036317856     
   0.9230769230769231        2.5316455696202531E-002  -1.1994758707471953E-005 
  -3.8126235742287577E-006   4.3007396278642323E-005    100.2040122295521     
   0.9487179487179487        2.5316455696202531E-002  -4.4978816907611548E-006 
  -2.3318849344974619E-006   4.2866857473136934E-005    100.1363598882381     
   0.9743589743589743        2.5316455696202531E-002  -5.6628004796501714E-007 
  -6.5061574159310326E-007   4.2691798476916478E-005    100.0680510052143     
    1.000000000000000        2.5316455696202531E-002   1.3524265972758820E-007 
   2.7369538849642586E-007   4.2576558669996217E-005    100.0000000000000     
    0.000000000000000        5.0632911392405063E-002  -4.3441862570600864E-010 
   8.5204348087987603E-010   4.7333332913546584E-007    100.0000000000000     
   2.5641025641025640E-002   5.0632911392405063E-002  -2.3271116113775175E-006 
   4.5636202223384139E-006   1.5716363788887817E-007    100.1313926937537     
   5.1282051282051280E-002   5.0632911392405063E-002  -1.1164944075423767E-005 
   1.1047775523799877E-005  -5.3892766029158662E-009    100.2623204555011     
   7.6923076923076927E-002   5.0632911392405063E-002  -2.5154937152763649E-005 
   1.6960028911176140E-005  -1.3960976792866447E-007    100.3914189606341     
   0.1025641025641026        5.0632911392405063E-002  -4.3818607374991135E-005 
   2.1524460500404369E-005  -1.3076401784173743E-007    100.5180991106124     
   0.1282051282051282        5.0632911392405063E-002  -6.5925894598709649E-005 
   2.4763914351185569E-005   3.2115688345956513E-008    100.6416481279528     
   0.1538461538461539        5.0632911392405063E-002  -9.0460721316020773E-005 
   2.6824351985595130E-005   3.8055978020036481E-007    100.7613960498248     
   0.1794871794871795        5.0632911392405063E-002  -1.1644228644576695E-004 
   2.7888677712568174E-005   9.2355391841613019E-007    100.8766208179635     
   0.2051282051282051        5.0632911392405063E-002  -1.4304204595555784E-004 
   2.8115086177745933E-005   1.6668335020938761E-006    100.9866223952462     
   0.2307692307692308        5.0632911392405063E-002  -1.6953995151528994E-004 
   2.7637253656934212E-005   2.6085216716468850E-006    101.0907081938297     
   0.2564102564102564        5.0632911392405063E-002  -1.9532313181391770E-004 
   2.6564108524807845E-005   3.7427944128809914E-006    101.1882092973211     
   0.2820512820512821        5.0632911392405063E-002  -2.1986601932909606E-004 
   2.4985752809188033E-005   5.0599864086050285E-006    101.2784850313278     
   0.3076923076923077        5.0632911392405063E-002  -2.4271951172863865E-004 
   2.2977876658405134E-005   6.5475957107381076E-006    101.3609271615125     
   0.3333333333333333        5.0632911392405063E-002  -2.6350036930341289E-004 
   2.0605827231643469E-005   8.1906812967037718E-006    101.4349674440267     
   0.3589743589743590        5.0632911392405063E-002  -2.8188403603579440E-004 
   1.7927605326407495E-005   9.9723088029572351E-006    101.5000814961327     
   0.3846153846153846        5.0632911392405063E-002  -2.9759917452175675E-004 
   1.4996144738822791E-005   1.1873868675485268E-005    101.5557943278090     
   0.4102564102564102        5.0632911392405063E-002  -3.1042391932366357E-004 
   1.1860948727924292E-005   1.3875374630734919E-005    101.6016848166870     
   0.4358974358974359        5.0632911392405063E-002  -3.2018327698681725E-004 
   8.5692611041646266E-006   1.5955730000951620E-005    101.6373901962400     
   0.4615384615384616        5.0632911392405063E-002  -3.2674741418906429E-004 
   5.1668856067384528E-006   1.8092983616990218E-005    101.6626100305066     
   0.4871794871794872        5.0632911392405063E-002  -3.3003056712755052E-004 
   1.6987589714526968E-006   2.0264577568037692E-005    101.6771098044968     
   0.5128205128205128        5.0632911392405063E-002  -3.2999040749735780E-004 
  -1.7906402616583474E-006   2.2447591970544954E-005    101.6807240306013     
   0.5384615384615384        5.0632911392405063E-002  -3.2662775150957410E-004 
  -5.2569760523950161E-006   2.4618988146596229E-005    101.6733588507780     
   0.5641025641025641        5.0632911392405063E-002  -3.1998655933877373E-004 
  -8.6557693049469327E-006   2.6755851493249913E-005    101.6549940987481     
   0.5897435897435898        5.0632911392405063E-002  -3.1015422494225507E-004 
  -1.1942081663437180E-005   2.8835634686030909E-005    101.6256847988908     
   0.6153846153846154        5.0632911392405063E-002  -2.9726220911495551E-004 
  -1.5070105919002535E-005   3.0836402475606703E-005    101.5855620862722     
   0.6410256410256411        5.0632911392405063E-002  -2.8148712818710055E-004 
  -1.7992592283458125E-005   3.2737079624407472E-005    101.5348335444807     
   0.6666666666666666        5.0632911392405063E-002  -2.6305246395416469E-004 
  -2.0660029622597790E-005   3.4517706827045416E-005    101.4737829539809     
   0.6923076923076923        5.0632911392405063E-002  -2.4223115364142156E-004 
  -2.3019477315552989E-005   3.6159707932156836E-005    101.4027694908402     
   0.7179487179487180        5.0632911392405063E-002  -2.1934933014626770E-004 
  -2.5012938800095548E-005   3.7646187591125093E-005    101.3222263546835     
   0.7435897435897436        5.0632911392405063E-002  -1.9479173122818625E-004 
  -2.6575100135780580E-005   3.8962254140606092E-005    101.2326590068986     
   0.7692307692307693        5.0632911392405063E-002  -1.6900888684889570E-004 
  -2.7630382364008543E-005   4.0095455456041285E-005    101.1346429231474     
   0.7948717948717948        5.0632911392405063E-002  -1.4252741543718421E-004 
  -2.8088936118978171E-005   4.1036207958207937E-005    101.0288211390493     
   0.8205128205128205        5.0632911392405063E-002  -1.1596121154098972E-004 
  -2.7842443306247683E-005   4.1778716362758832E-005    100.9159024774679     
   0.8461538461538462        5.0632911392405063E-002  -9.0029462145662398E-005 
  -2.6758349285979362E-005   4.2321315935186375E-005    100.7966584383377     
   0.8717948717948718        5.0632911392405063E-002  -6.5561824444366459E-005 
  -2.4681076594785849E-005   4.2669463048248583E-005    100.6719266931818     
   0.8974358974358975        5.0632911392405063E-002  -4.3529545194391405E-005 
  -2.1431304096419146E-005   4.2833232441057939E-005    100.5426040605514     
   0.9230769230769231        5.0632911392405063E-002  -2.4962738954105957E-005 
  -1.6872877881788128E-005   4.2841426439550649E-005    100.4096731565959     
   0.9487179487179487        5.0632911392405063E-002  -1.1035140881142989E-005 
  -1.0985102789721790E-005   4.2713256052111631E-005    100.2741572740886     
   0.9743589743589743        5.0632911392405063E-002  -2.3845843940327077E-006 
  -4.5221756939949405E-006   4.2541849784466974E-005    100.1372552418724     
    1.000000000000000        5.0632911392405063E-002   1.3472256570191626E-007 
   2.7290233226283480E-007   4.2271313091684783E-005    100.0000000000000     
    0.000000000000000        7.5949367088607597E-002  -7.4894853465785832E-010 
   2.2756354239305522E-009   8.1470763574395366E-007    100.0000000000000     
   2.5641025641025640E-002   7.5949367088607597E-002  -3.8682628962822754E-006 
   1.1986903739778066E-005   3.0082768008129952E-007    100.1981496399794     
   5.1282051282051280E-002   7.5949367088607597E-002  -1.7290963420970299E-005 
   2.4902849666458061E-005   1.2569651350946295E-007    100.3955072248298     
   7.6923076923076927E-002   7.5949367088607597E-002  -3.7023513096903338E-005 
   3.6339304954336420E-005  -1.2996278691700979E-008    100.5902313049823     
   0.1025641025641026        7.5949367088607597E-002  -6.2494683697292115E-005 
   4.5329778148765143E-005   2.2013905384050959E-008    100.7813654429484     
   0.1282051282051282        7.5949367088607597E-002  -9.2166522392286043E-005 
   5.1827088014787580E-005   2.0979545118469514E-007    100.9677433395801     
   0.1538461538461539        7.5949367088607597E-002  -1.2486977313128138E-004 
   5.6038552758120181E-005   5.8153628335365825E-007    101.1483257220597     
   0.1794871794871795        7.5949367088607597E-002  -1.5940470423580198E-004 
   5.8259537383471597E-005   1.1410125858137409E-006    101.3220604884650     
   0.2051282051282051        7.5949367088607597E-002  -1.9473904779205659E-004 
   5.8771293779345811E-005   1.8939367679498217E-006    101.4878893333221     
   0.2307692307692308        7.5949367088607597E-002  -2.2994903111760027E-004 
   5.7823425597662227E-005   2.8382280502270651E-006    101.6447816599411     
   0.2564102564102564        7.5949367088607597E-002  -2.6423441901678353E-004 
   5.5628265044296755E-005   3.9687045440467539E-006    101.7917440177866     
   0.2820512820512821        7.5949367088607597E-002  -2.9689868503395131E-004 
   5.2366535555075608E-005   5.2763541453273621E-006    101.9278088969570     
   0.3076923076923077        7.5949367088607597E-002  -3.2734070363621165E-004 
   4.8193520464227967E-005   6.7494194997629664E-006    102.0520665058188     
   0.3333333333333333        7.5949367088607597E-002  -3.5504380794814701E-004 
   4.3245389840219381E-005   8.3736656925062433E-006    102.1636604772278     
   0.3589743589743590        7.5949367088607597E-002  -3.7956836267168066E-004 
   3.7644328238144456E-005   1.0132833621250360E-005    102.2618017516661     
   0.3846153846153846        7.5949367088607597E-002  -4.0054565220281073E-004 
   3.1502610692786912E-005   1.2008945189840064E-005    102.3457740552497     
   0.4102564102564102        7.5949367088607597E-002  -4.1767357718263667E-004 
   2.4925657669129967E-005   1.3982609654403051E-005    102.4149422226004     
   0.4358974358974359        7.5949367088607597E-002  -4.3071355283089727E-004 
   1.8014284926470988E-005   1.6033295553828400E-005    102.4687586452983     
   0.4615384615384616        7.5949367088607597E-002  -4.3948841665083875E-004 
   1.0866322169887733E-005   1.8139594492497900E-005    102.5067695451893     
   0.4871794871794872        7.5949367088607597E-002  -4.4388106283781175E-004 
   3.5777735737660918E-006   2.0279475785490247E-005    102.5286204324665     
   0.5128205128205128        7.5949367088607597E-002  -4.4383363445393110E-004 
  -3.7563331287711276E-006   2.2430537798904413E-005    102.5340608816111     
   0.5384615384615384        7.5949367088607597E-002  -4.3934714749918331E-004 
  -1.1041276810037545E-005   2.4570257172452974E-005    102.5229485300409     
   0.5641025641025641        7.5949367088607597E-002  -4.3048148865746820E-004 
  -1.8182031674253582E-005   2.6676237616698294E-005    102.4952522568202     
   0.5897435897435898        7.5949367088607597E-002  -4.1735578638099554E-004 
  -2.5082597183745795E-005   2.8726459147812543E-005    102.4510545131088     
   0.6153846153846154        7.5949367088607597E-002  -4.0014921301211194E-004 
  -3.1645148991050996E-005   3.0699529438420227E-005    102.3905527917312     
   0.6410256410256411        7.5949367088607597E-002  -3.7910234220794029E-004 
  -3.7768879712628279E-005   3.2574938563498076E-005    102.3140602180607     
   0.6666666666666666        7.5949367088607597E-002  -3.5451922968684851E-004 
  -4.3348385021417457E-005   3.4333322800633315E-005    102.2220053113504     
   0.6923076923076923        7.5949367088607597E-002  -3.2677049353032337E-004 
  -4.8271424776625968E-005   3.5956737055658530E-005    102.1149308200749     
   0.7179487179487180        7.5949367088607597E-002  -2.9629758886379334E-004 
  -5.2415892727442905E-005   3.7428960764528171E-005    101.9934919874371     
   0.7435897435897436        7.5949367088607597E-002  -2.6361885402944278E-004 
  -5.5645783216873112E-005   3.8735805535540324E-005    101.8584536135947     
   0.7692307692307693        7.5949367088607597E-002  -2.2933687903437620E-004 
  -5.7806154554994293E-005   3.9865563493943508E-005    101.7106877027324     
   0.7948717948717948        7.5949367088607597E-002  -1.9414923299336732E-004 
  -5.8716923038729019E-005   4.0809289897938874E-005    101.5511685311958     
   0.8205128205128205        7.5949367088607597E-002  -1.5885678154517493E-004 
  -5.8167007738896831E-005   4.1561848909786519E-005    101.3809704929440     
   0.8461538461538462        7.5949367088607597E-002  -1.2438271911812134E-004 
  -5.5908845230413208E-005   4.2121288891737788E-005    101.2012634421676     
   0.8717948717948718        7.5949367088607597E-002  -9.1758734540954413E-005 
  -5.1665109295478010E-005   4.2493256312686442E-005    101.0133124084400     
   0.8974358974358975        7.5949367088607597E-002  -6.2180157928614621E-005 
  -4.5145037011101820E-005   4.2682025385746486E-005    100.8184645788964     
   0.9230769230769231        7.5949367088607597E-002  -3.6818563661609601E-005 
  -3.6150637746403265E-005   4.2717890366669754E-005    100.6181861305966     
   0.9487179487179487        7.5949367088607597E-002  -1.7196435450202578E-005 
  -2.4723135301624194E-005   4.2583140947806671E-005    100.4139079745286     
   0.9743589743589743        7.5949367088607597E-002  -3.9054805964540864E-006 
  -1.1839057770090747E-005   4.2408963915753258E-005    100.2074654039947     
    1.000000000000000        7.5949367088607597E-002    0.000000000000000      
    0.000000000000000        4.1916370194324159E-005    100.0000000000000     
    0.000000000000000        0.1012658227848101         0.000000000000000      
    0.000000000000000        1.0218981803603768E-006    100.0000000000000     
   2.5641025641025640E-002   0.1012658227848101       -5.0788435106655655E-006 
   2.2489817569533003E-005   3.3923917932029264E-007    100.2661491671925     
   5.1282051282051280E-002   0.1012658227848101       -2.2377002505391923E-005 
   4.3642318417975858E-005   1.2131669447136055E-007    100.5311076468817     
   7.6923076923076927E-002   0.1012658227848101       -4.7107057945544774E-005 
   6.1700449616395935E-005  -5.4153021818650043E-008    100.7925467720730     
   0.1025641025641026        0.1012658227848101       -7.8427032611941318E-005 
   7.5888676908153623E-005  -2.3361290151535828E-008    101.0492304920815     
   0.1282051282051282        0.1012658227848101       -1.1445884907117952E-004 
   8.6216375380988842E-005   1.6811086711482110E-007    101.2995445593378     
   0.1538461538461539        0.1012658227848101       -1.5389964508105586E-004 
   9.2976461429581080E-005   5.5016766263006583E-007    101.5420795515830     
   0.1794871794871795        0.1012658227848101       -1.9539558206908763E-004 
   9.6575872334546262E-005   1.1207971472377065E-006    101.7753811593469     
   0.2051282051282051        0.1012658227848101       -2.3777854330073040E-004 
   9.7420223560009994E-005   1.8843663129846077E-006    101.9980344545711     
   0.2307692307692308        0.1012658227848101       -2.7998461814600232E-004 
   9.5881579296568830E-005   2.8375591113606452E-006    102.2087221916736     
   0.2564102564102564        0.1012658227848101       -3.2108010488784327E-004 
   9.2286819902749010E-005   3.9749305491205705E-006    102.4060550456507     
   0.2820512820512821        0.1012658227848101       -3.6024221660381234E-004 
   8.6921104097063858E-005   5.2874106796578048E-006    102.5887720705712     
   0.3076923076923077        0.1012658227848101       -3.9675423483036130E-004 
   8.0034474498818234E-005   6.7634016017733145E-006    102.7556407346009     
   0.3333333333333333        0.1012658227848101       -4.2999566668701730E-004 
   7.1849556271586380E-005   8.3888878059038781E-006    102.9055186085592     
   0.3589743589743590        0.1012658227848101       -4.5943574436453047E-004 
   6.2568366962035643E-005   1.0147862999365203E-005    103.0373437238260     
   0.3846153846153846        0.1012658227848101       -4.8462762086147210E-004 
   5.2377977593408314E-005   1.2022601268420811E-005    103.1501540741551     
   0.4102564102564102        0.1012658227848101       -5.0520420068277171E-004 
   4.1454925281471871E-005   1.3993955103083326E-005    103.2430947183872     
   0.4358974358974359        0.1012658227848101       -5.2087502754037402E-004 
   2.9968552682684850E-005   1.6041622500578575E-005    103.3154281286359     
   0.4615384615384616        0.1012658227848101       -5.3142414286019455E-004 
   1.8083470951353683E-005   1.8144411677046600E-005    103.3665423299689     
   0.4871794871794872        0.1012658227848101       -5.3670865970283056E-004 
   5.9613637214286582E-006   2.0280498267899426E-005    103.3959584708159     
   0.5128205128205128        0.1012658227848101       -5.3665790758572853E-004 
  -6.2376658797333510E-006   2.2427680516992842E-005    103.4033374010393     
   0.5384615384615384        0.1012658227848101       -5.3127302971664339E-004 
  -1.8354015238193070E-005   2.4563632750754460E-005    103.3884851778112     
   0.5641025641025641        0.1012658227848101       -5.2062697806819604E-004 
  -3.0227590290258958E-005   2.6666158593403687E-005    103.3513574662651     
   0.5897435897435898        0.1012658227848101       -5.0486490567002156E-004 
  -4.1696726189185969E-005   2.8713444429701453E-005    103.2920627957329     
   0.6153846153846154        0.1012658227848101       -4.8420500947789734E-004 
  -5.2596842413010073E-005   3.0684314563281781E-005    103.2108646559481     
   0.6410256410256411        0.1012658227848101       -4.5893994025543677E-004 