 VARIABLES="X" "Y" "U<sub>x" "V<sub>y" "Pressure" "Temprature"
 Zone i=           40 ,j=           80 ,k=1,f=point
    0.000000000000000         0.000000000000000         0.000000000000000      
    0.000000000000000         0.000000000000000         100.0000000000000     
   2.5641025641025640E-002    0.000000000000000         0.000000000000000      
   2.8281030252922184E-009  -2.9412202198223948E-007    100.0000000000000     
   5.1282051282051280E-002    0.000000000000000       -1.3961366952356242E-009 
   4.7169741866435862E-010  -3.1618561328408421E-008    100.0000000000000     
   7.6923076923076927E-002    0.000000000000000       -1.5008523965760918E-010 
   5.0672706204604310E-011   9.7463817274579084E-007    100.0000000000000     
   0.1025641025641026         0.000000000000000         0.000000000000000      
  -1.5620033214909292E-009   2.5871682683693344E-006    100.0000000000000     
   0.1282051282051282         0.000000000000000         0.000000000000000      
    0.000000000000000        4.5843265600585495E-006    100.0000000000000     
   0.1538461538461539         0.000000000000000         0.000000000000000      
    0.000000000000000        6.7786224744961908E-006    100.0000000000000     
   0.1794871794871795         0.000000000000000         0.000000000000000      
    0.000000000000000        8.9971686608108293E-006    100.0000000000000     
   0.2051282051282051         0.000000000000000         0.000000000000000      
    0.000000000000000        1.1090194617995614E-005    100.0000000000000     
   0.2307692307692308         0.000000000000000         0.000000000000000      
    0.000000000000000        1.2929352157615642E-005    100.0000000000000     
   0.2564102564102564         0.000000000000000         0.000000000000000      
    0.000000000000000        1.4410095945438185E-005    100.0000000000000     
   0.2820512820512821         0.000000000000000         0.000000000000000      
    0.000000000000000        1.5452660859829239E-005    100.0000000000000     
   0.3076923076923077         0.000000000000000         0.000000000000000      
    0.000000000000000        1.6003083651378043E-005    100.0000000000000     
   0.3333333333333333         0.000000000000000         0.000000000000000      
    0.000000000000000        1.6033274910606937E-005    100.0000000000000     
   0.3589743589743590         0.000000000000000         0.000000000000000      
    0.000000000000000        1.5540278345695986E-005    100.0000000000000     
   0.3846153846153846         0.000000000000000         0.000000000000000      
    0.000000000000000        1.4544509156513695E-005    100.0000000000000     
   0.4102564102564102         0.000000000000000         0.000000000000000      
    0.000000000000000        1.3087091858749038E-005    100.0000000000000     
   0.4358974358974359         0.000000000000000         0.000000000000000      
    0.000000000000000        1.1226481259141046E-005    100.0000000000000     
   0.4615384615384616         0.000000000000000         0.000000000000000      
    0.000000000000000        9.0345961767573148E-006    100.0000000000000     
   0.4871794871794872         0.000000000000000         0.000000000000000      
    0.000000000000000        6.5927735703884996E-006    100.0000000000000     
   0.5128205128205128         0.000000000000000         0.000000000000000      
    0.000000000000000        3.9878226575012568E-006    100.0000000000000     
   0.5384615384615384         0.000000000000000         0.000000000000000      
    0.000000000000000        1.3084239571832086E-006    100.0000000000000     
   0.5641025641025641         0.000000000000000         0.000000000000000      
    0.000000000000000       -1.3582138478460063E-006    100.0000000000000     
   0.5897435897435898         0.000000000000000         0.000000000000000      
    0.000000000000000       -3.9273369202371453E-006    100.0000000000000     
   0.6153846153846154         0.000000000000000         0.000000000000000      
    0.000000000000000       -6.3220218409792567E-006    100.0000000000000     
   0.6410256410256411         0.000000000000000         0.000000000000000      
    0.000000000000000       -8.4697531028352288E-006    100.0000000000000     
   0.6666666666666666         0.000000000000000         0.000000000000000      
    0.000000000000000       -1.0306827436120075E-005    100.0000000000000     
   0.6923076923076923         0.000000000000000         0.000000000000000      
    0.000000000000000       -1.1777531715980516E-005    100.0000000000000     
   0.7179487179487180         0.000000000000000         0.000000000000000      
    0.000000000000000       -1.2835118486986120E-005    100.0000000000000     
   0.7435897435897436         0.000000000000000         0.000000000000000      
    0.000000000000000       -1.3442920451306186E-005    100.0000000000000     
   0.7692307692307693         0.000000000000000         0.000000000000000      
    0.000000000000000       -1.3576192363003297E-005    100.0000000000000     
   0.7948717948717948         0.000000000000000         0.000000000000000      
    0.000000000000000       -1.3225086325411156E-005    100.0000000000000     
   0.8205128205128205         0.000000000000000         0.000000000000000      
    0.000000000000000       -1.2399286586781885E-005    100.0000000000000     
   0.8461538461538462         0.000000000000000         0.000000000000000      
    0.000000000000000       -1.1134934972484544E-005    100.0000000000000     
   0.8717948717948718         0.000000000000000         0.000000000000000      
    0.000000000000000       -9.5040670196499420E-006    100.0000000000000     
   0.8974358974358975         0.000000000000000         0.000000000000000      
    0.000000000000000       -7.6302805667245330E-006    100.0000000000000     
   0.9230769230769231         0.000000000000000         0.000000000000000      
    0.000000000000000       -5.7062657773212903E-006    100.0000000000000     
   0.9487179487179487         0.000000000000000         0.000000000000000      
    0.000000000000000       -4.0434545662708321E-006    100.0000000000000     
   0.9743589743589743         0.000000000000000         0.000000000000000      
    0.000000000000000       -3.0768241326129836E-006    100.0000000000000     
    1.000000000000000         0.000000000000000         0.000000000000000      
    0.000000000000000       -3.1038918185468087E-006    100.0000000000000     
    0.000000000000000        2.5316455696202531E-002   4.6538649618767842E-010 
  -4.7029735951583004E-010   2.8953630067185098E-007    100.0000000000000     
   2.5641025641025640E-002   2.5316455696202531E-002  -3.4049036203523888E-006 
   3.3800324769271503E-006  -8.7073600938326725E-009    100.0593867716918     
   5.1282051282051280E-002   2.5316455696202531E-002  -1.1303634847276789E-005 
   3.7051977453487335E-006   3.6064969603851708E-007    100.1184649968796     
   7.6923076923076927E-002   2.5316455696202531E-002  -1.6212342613023404E-005 
   1.7539433890331770E-006   1.1303611992510493E-006    100.1765192821505     
   0.1025641025641026        2.5316455696202531E-002  -1.5109863583009648E-005 
  -1.4394468109999011E-006   2.3449147525930195E-006    100.2333808775346     
   0.1282051282051282        2.5316455696202531E-002  -5.7427238267302058E-006 
  -5.1728023112669995E-006   3.8507063780117258E-006    100.2884858710543     
   0.1538461538461539        2.5316455696202531E-002   1.2603668257975943E-005 
  -9.0437860172314654E-006   5.5322839754677845E-006    100.3413662071128     
   0.1794871794871795        2.5316455696202531E-002   3.9934059473356681E-005 
  -1.2746224816398204E-005   7.2559913065506901E-006    100.3915624909175     
   0.2051282051282051        2.5316455696202531E-002   7.5581507008017350E-005 
  -1.6058942408318305E-005   8.9051621707804584E-006    100.4386543913548     
   0.2307692307692308        2.5316455696202531E-002   1.1842337034776491E-004 
  -1.8812112546145999E-005   1.0374513152944681E-005    100.4822478496380     
   0.2564102564102564        2.5316455696202531E-002   1.6697580398497141E-004 
  -2.0882547022596051E-005   1.1576845641992856E-005    100.5219854470899     
   0.2820512820512821        2.5316455696202531E-002   2.1950757338866294E-004 
  -2.2188054285558990E-005   1.2443701802163259E-005    100.5575495605521     
   0.3076923076923077        2.5316455696202531E-002   2.7413407116429049E-004 
  -2.2685938271061110E-005   1.2927127044638505E-005    100.5886728015505     
   0.3333333333333333        2.5316455696202531E-002   3.2891077982710704E-004 
  -2.2370583772634444E-005   1.2999975664997768E-005    100.6151424120281     
   0.3589743589743590        2.5316455696202531E-002   3.8191907776984269E-004 
  -2.1270901906449245E-005   1.2655575447743250E-005    100.6368062848439     
   0.3846153846153846        2.5316455696202531E-002   4.3134435480292365E-004 
  -1.9446319404826813E-005   1.1906490892679991E-005    100.6535734496848     
   0.4102564102564102        2.5316455696202531E-002   4.7554318376550947E-004 
  -1.6981629911928149E-005   1.0782567750357052E-005    100.6654137863537     
   0.4358974358974359        2.5316455696202531E-002   5.1309735847221286E-004 
  -1.3981055176555457E-005   9.3283289246029778E-006    100.6723544667381     
   0.4615384615384616        2.5316455696202531E-002   5.4285316448681755E-004 
  -1.0561765446430768E-005   7.5999680266167170E-006    100.6744755774862     
   0.4871794871794872        2.5316455696202531E-002   5.6394562963797690E-004 
  -6.8475786371586550E-006   5.6621412767360494E-006    100.6719046511892     
   0.5128205128205128        2.5316455696202531E-002   5.7580839838882966E-004 
  -2.9632427241163635E-006   3.5847701852229168E-006    100.6648107740086     
   0.5384615384615384        2.5316455696202531E-002   5.7817162721330174E-004 
   9.7006816601164371E-007   1.4400928920660868E-006    100.6533985970037     
   0.5641025641025641        2.5316455696202531E-002   5.7104924908129965E-004 
   4.8381482662443384E-006  -7.0001440663981208E-007    100.6379021853703     
   0.5897435897435898        2.5316455696202531E-002   5.5472242857490604E-004 
   8.5380039853278778E-006  -2.7661760289520893E-006    100.6185786725780     
   0.6153846153846154        2.5316455696202531E-002   5.2971655263207818E-004 
   1.1970510973201685E-005  -4.6932640441106073E-006    100.5957028522808     
   0.6410256410256411        2.5316455696202531E-002   4.9677994369182188E-004 
   1.5050686564258821E-005  -6.4217839457153792E-006    100.5695614261520     
   0.6666666666666666        2.5316455696202531E-002   4.5686684731458812E-004 
   1.7698148057256290E-005  -7.8989404813261599E-006    100.5404475647608     
   0.6923076923076923        2.5316455696202531E-002   4.1112133091943868E-004 
   1.9837152761253368E-005  -9.0795170028952618E-006    100.5086557235939     
   0.7179487179487180        2.5316455696202531E-002   3.6086884755210248E-004 
   2.1394210689039754E-005  -9.9269429893343702E-006    100.4744773445001     
   0.7435897435897436        2.5316455696202531E-002   3.0761089871129819E-004 
   2.2296113081920568E-005  -1.0414575541760449E-005    100.4381941245708     
   0.7692307692307693        2.5316455696202531E-002   2.5302269890940419E-004 
   2.2469481277522668E-005  -1.0527539544037094E-005    100.4000747564660     
   0.7948717948717948        2.5316455696202531E-002   1.9894695754571479E-004 
   2.1842030919017914E-005  -1.0265536131417094E-005    100.3603611029117     
   0.8205128205128205        2.5316455696202531E-002   1.4738104828435980E-004 
   2.0348816882573580E-005  -9.6462392567404103E-006    100.3192721989173     
   0.8461538461538462        2.5316455696202531E-002   1.0043492999491782E-004 
   1.7943153512807281E-005  -8.7110819857697002E-006    100.2769685711724     
   0.8717948717948718        2.5316455696202531E-002   6.0267974634245716E-005 
   1.4619375979130213E-005  -7.5295994506348717E-006    100.2335894930058     
   0.8974358974358975        2.5316455696202531E-002   2.8892530202901525E-005 
   1.0456054727882644E-005  -6.2123545253381585E-006    100.1891683468503     
   0.9230769230769231        2.5316455696202531E-002   7.9954305867959928E-006 
   5.6972177523502213E-006  -4.9018777371630763E-006    100.1437273534408     
   0.9487179487179487        2.5316455696202531E-002  -1.9952727546598152E-006 
   9.6059902554176579E-007  -3.8180914087983812E-006    100.0970276426491     
   0.9743589743589743        2.5316455696202531E-002  -2.1726264801246600E-006 
  -2.1289854747130280E-006  -3.1033897140111944E-006    100.0492131370363     
    1.000000000000000        2.5316455696202531E-002  -9.7796139227385961E-009 
  -1.9853340656337245E-008  -3.1359612322698648E-006    100.0000000000000     
    0.000000000000000        5.0632911392405063E-002  -1.7158326202412343E-009 
   2.6402853443913659E-009   6.4579620131761823E-008    100.0000000000000     
   2.5641025641025640E-002   5.0632911392405063E-002  -3.9181682196339364E-006 
   1.1278905738917081E-005  -3.6926049543585569E-007    100.1200785150229     
   5.1282051282051280E-002   5.0632911392405063E-002  -1.1398548802120195E-005 
   1.0732620142974597E-005  -2.9931759495106198E-009    100.2386292857533     
   7.6923076923076927E-002   5.0632911392405063E-002  -1.2329401742103985E-005 
   2.0192321395060470E-006   7.1375514622126097E-007    100.3548657881722     
   0.1025641025641026        5.0632911392405063E-002  -2.4676729286496825E-006 
  -1.1556895631673234E-005   1.8338613606547585E-006    100.4684145245113     
   0.1282051282051282        5.0632911392405063E-002   2.1537272274402901E-005 
  -2.7549164918576327E-005   3.2050128145529028E-006    100.5783956597521     
   0.1538461538461539        5.0632911392405063E-002   6.0913113333365551E-005 
  -4.4193158817688379E-005   4.7336919177280455E-006    100.6839805831854     
   0.1794871794871795        5.0632911392405063E-002   1.1567170860445781E-004 
  -6.0177766254498895E-005   6.3026373580325216E-006    100.7842961052104     
   0.2051282051282051        5.0632911392405063E-002   1.8469148615954162E-004 
  -7.4498847880208335E-005   7.8097167980079690E-006    100.8785142921775     
   0.2307692307692308        5.0632911392405063E-002   2.6602299526686511E-004 
  -8.6391227274581608E-005   9.1606314439535048E-006    100.9658507521721     
   0.2564102564102564        5.0632911392405063E-002   3.5706685421271230E-004 
  -9.5293258888696068E-005   1.0276297501083448E-005    101.0455748489438     
   0.2820512820512821        5.0632911392405063E-002   4.5476926700003221E-004 
  -1.0083015304701919E-004   1.1093752554498297E-005    101.1170399845779     
   0.3076923076923077        5.0632911392405063E-002   5.5579431020293861E-004 
  -1.0280302304897610E-004   1.1568242748035225E-005    101.1796871031636     
   0.3333333333333333        5.0632911392405063E-002   6.5669061484575073E-004 
  -1.0117948788817988E-004   1.1673685861748754E-005    101.2330723637214     
   0.3589743589743590        5.0632911392405063E-002   7.5404483493786228E-004 
  -9.6079918856380062E-005   1.1402663672651063E-005    101.2768676087815     
   0.3846153846153846        5.0632911392405063E-002   8.4462094449881220E-004 
  -8.7759836271516389E-005   1.0765412968434930E-005    101.3108710640767     
   0.4102564102564102        5.0632911392405063E-002   9.2547974233851118E-004 
  -7.6587811365198637E-005   9.7880795745653074E-006    101.3350023035217     
   0.4358974358974359        5.0632911392405063E-002   9.9407568980487346E-004 
  -6.3019319159500939E-005   8.5103972035226329E-006    101.3492982748467     
   0.4615384615384616        5.0632911392405063E-002   1.0483284070788193E-003 
  -4.7569208882892352E-005   6.9829158110118207E-006    101.3539039057656     
   0.4871794871794872        5.0632911392405063E-002   1.0866682787749138E-003 
  -3.0784418830602323E-005   5.2640467965791840E-006    101.3490621978471     
   0.5128205128205128        5.0632911392405063E-002   1.1080576819539154E-003 
  -1.3219436606217199E-005   3.4171025092313094E-006    101.3351027085566     
   0.5384615384615384        5.0632911392405063E-002   1.1119909473153659E-003 
   4.5840679717953341E-006   1.5075359670253793E-006    101.3124293942755     
   0.5641025641025641        5.0632911392405063E-002   1.0984773700226389E-003 
   2.2112223910200119E-005  -3.9953116080039272E-007    101.2815077815880     
   0.5897435897435898        5.0632911392405063E-002   1.0680133967506437E-003 
   3.8887133125753072E-005  -2.2412427006815343E-006    101.2428525736430     
   0.6153846153846154        5.0632911392405063E-002   1.0215470027979134E-003 
   5.4470924646721540E-005  -3.9589404510915039E-006    101.1970147243989     
   0.6410256410256411        5.0632911392405063E-002   9.6044143274396927E-004 
   6.8462559093219498E-005  -5.4990445993606496E-006    101.1445692345822     
   0.6666666666666666        5.0632911392405063E-002   8.8644238016432535E-004 
   8.0492918453772334E-005  -6.8143475359057360E-006    101.0861033839876     
   0.6923076923076923        5.0632911392405063E-002   8.0164881162697002E-004 
   9.0215799537773773E-005  -7.8647715593553544E-006    101.0222068562009     
   0.7179487179487180        5.0632911392405063E-002   7.0849040106564661E-004 
   9.7300143698319377E-005  -8.6182849841330899E-006    100.9534581037039     
   0.7435897435897436        5.0632911392405063E-002   6.0970963147380050E-004 
   1.0142444458985286E-004  -9.0520458197074548E-006    100.8804202613393     
   0.7692307692307693        5.0632911392405063E-002   5.0834215606396390E-004 
   1.0227764333615025E-004  -9.1540102910862501E-006    100.8036174223211     
   0.7948717948717948        5.0632911392405063E-002   4.0769074821056305E-004 
   9.9571738837331687E-005  -8.9248999599158004E-006    100.7235451011388     
   0.8205128205128205        5.0632911392405063E-002   3.1127398401167513E-004 
   9.3069380066565960E-005  -8.3815099134365819E-006    100.6406014094095     
   0.8461538461538462        5.0632911392405063E-002   2.2273776584887613E-004 
   8.2640440521615315E-005  -7.5598184077485471E-006    100.5551772624741     
   0.8717948717948718        5.0632911392405063E-002   1.4568546668674665E-004 
   6.8370105011228131E-005  -6.5203237448519320E-006    100.4674472278165     
   0.8974358974358975        5.0632911392405063E-002   8.3401396142784276E-005 
   5.0720407026146466E-005  -5.3507566640685013E-006    100.3776888582010     
   0.9230769230769231        5.0632911392405063E-002   3.8360874945947371E-005 
   3.0926998205884882E-005  -4.1725774185931955E-006    100.2859438612479     
   0.9487179487179487        5.0632911392405063E-002   1.1445587298630389E-005 
   1.1514349861868765E-005  -3.1353591059060337E-006    100.1922523243157     
   0.9743589743589743        5.0632911392405063E-002   8.3511794922660032E-007 
  -2.0233127346756951E-006  -2.4114252111698466E-006    100.0968741655405     
    1.000000000000000        5.0632911392405063E-002  -1.0691910040679404E-008 
  -2.0854326986541806E-008  -2.1946915925467334E-006    100.0000000000000     
    0.000000000000000        7.5949367088607597E-002  -1.0217614564853588E-010 
   3.1048956043371839E-010  -8.6989804520925740E-007    100.0000000000000     
   2.5641025641025640E-002   7.5949367088607597E-002  -2.4090925461002974E-006 
   1.6939425379073638E-005  -1.1282881521083023E-006    100.1815744152030     
   5.1282051282051280E-002   7.5949367088607597E-002  -4.3589355273404070E-006 
   1.2238918921706925E-005  -7.1689501312536171E-007    100.3604995360884     
   7.6923076923076927E-002   7.5949367088607597E-002   4.1131268340717295E-006 
  -7.1522695610052882E-006   2.0105524089033753E-009    100.5357976040044     
   0.1025641025641026        7.5949367088607597E-002   2.7897621474250758E-005 
  -3.5561913397472743E-005   1.0538337300538096E-006    100.7067596849517     
   0.1282051282051282        7.5949367088607597E-002   7.0579208626688492E-005 
  -6.8671754803496649E-005   2.3170817581129416E-006    100.8722191094326     
   0.1538461538461539        7.5949367088607597E-002   1.3354520220446587E-004 
  -1.0307097447868361E-004   3.7136901087259142E-006    101.0310215651675     
   0.1794871794871795        7.5949367088607597E-002   2.1665516390296439E-004 
  -1.3609870876896216E-004   5.1459932846239610E-006    101.1819418808001     
   0.2051282051282051        7.5949367088607597E-002   3.1835615991851810E-004 
  -1.6565597489220574E-004   6.5262765473777049E-006    101.3237837147424     
   0.2307692307692308        7.5949367088607597E-002   4.3599816678501998E-004 
  -1.9012015851822904E-004   7.7721382495878720E-006    101.4553494546777     
   0.2564102564102564        7.5949367088607597E-002   5.6606758244755607E-004 
  -2.0829150199221406E-004   8.8132450413768398E-006    101.5755655227773     
   0.2820512820512821        7.5949367088607597E-002   7.0443888314528286E-004 
  -2.1936595369171329E-004   9.5927324434997305E-006    101.6834088517179     
   0.3076923076923077        7.5949367088607597E-002   8.4660637920822381E-004 
  -2.2291405191970337E-004   1.0069386774963314E-005    101.7780437349213     
   0.3333333333333333        7.5949367088607597E-002   9.8790741857676060E-004 
  -2.1885759430365616E-004   1.0218718768055697E-005    101.8587631561417     
   0.3589743589743590        7.5949367088607597E-002   1.1237303649047103E-003 
  -2.0744258600897923E-004   1.0032946345466176E-005    101.9250628802473     
   0.3846153846153846        7.5949367088607597E-002   1.2497006174533166E-003 
  -1.8920121991125824E-004   9.5202604276935352E-006    101.9766174159435     
   0.4102564102564102        7.5949367088607597E-002   1.3618421445016472E-003 
  -1.6490452371531000E-004   8.7034246783523830E-006    102.0132927691408     
   0.4358974358974359        7.5949367088607597E-002   1.4567080863544812E-003 
  -1.3550904788573075E-004   7.6175796393242316E-006    102.0351291273380     
   0.4615384615384616        7.5949367088607597E-002   1.5314777402595434E-003 
  -1.0209913446298185E-004   6.3077440143794161E-006    102.0423316939131     
   0.4871794871794872        7.5949367088607597E-002   1.5840195780593273E-003 
  -6.5830800084360971E-005   4.8260528073950670E-006    102.0352548380489     
   0.5128205128205128        7.5949367088607597E-002   1.6129219876552436E-003 
  -2.7880654897236641E-005   3.2290264720898518E-006    102.0143857838129     
   0.5384615384615384        7.5949367088607597E-002   1.6174961553557723E-003 
   1.0596395174282164E-005   1.5750043797122326E-006    101.9803264819733     
   0.5641025641025641        7.5949367088607597E-002   1.5977566226847103E-003 
   4.8498498895655584E-005  -7.8110723297304533E-008    101.9337745185174     
   0.5897435897435898        7.5949367088607597E-002   1.5543858176664787E-003 
   8.4796652553692918E-005  -1.6747521341086704E-006    101.8755034329754     
   0.6153846153846154        7.5949367088607597E-002   1.4886891859162226E-003 
   1.1854189876927401E-004  -3.1631390163259361E-006    101.8063432942296     
   0.6410256410256411        7.5949367088607597E-002   1.4025470593167898E-003 
   1.4886439022100106E-004  -4.4964654586192276E-006    101.7271607514405     
   0.6666666666666666        7.5949367088607597E-002   1.2983676791525592E-003 
   1.7496296024752900E-004  -5.6337391515391324E-006    101.6388421072822     
   0.6923076923076923        7.5949367088607597E-002   1.1790446382034124E-003 
   1.9609212439384774E-004  -6.5404817131582473E-006    101.5422715138632     
   0.7179487179487180        7.5949367088607597E-002   1.0479191447579442E-003 
   2.1154845377485673E-004  -7.1895178100486336E-006    101.4383278090567     
   0.7435897435897436        7.5949367088607597E-002   9.0874391199869970E-004 
   2.2066488073392785E-004  -7.5616671259500178E-006    101.3278417770780     
   0.7692307692307693        7.5949367088607597E-002   7.6564607273123145E-004 
   2.2281889108426424E-004  -7.6469841600904224E-006    101.2116370394934     
   0.7948717948717948        7.5949367088607597E-002   6.2306998888855380E-004 
   2.1745849879933890E-004  -7.4463900879788335E-006    101.0904090753265     
   0.8205128205128205        7.5949367088607597E-002   4.8569576796615184E-004 
   2.0417475757219812E-004  -6.9735816564125558E-006    100.9649057262783     
   0.8461538461538462        7.5949367088607597E-002   3.5830566258330702E-004 
   1.8281146780535604E-004  -6.2562939966025661E-006    100.8354645843702     
   0.8717948717948718        7.5949367088607597E-002   2.4554232327872883E-004 
   1.5368036561607982E-004  -5.3435108319684201E-006    100.7027736225488     
   0.8974358974358975        7.5949367088607597E-002   1.5163872317489906E-004 
   1.1786707028901006E-004  -4.2931758583571711E-006    100.5670693006015     
   0.9230769230769231        7.5949367088607597E-002   7.9700030597697525E-005 
   7.7852661509817843E-005  -3.2103264804203180E-006    100.4285602415253     
   0.9487179487179487        7.5949367088607597E-002   3.1608890836569042E-005 
   3.8224171123057929E-005  -2.1415972302833764E-006    100.2876474210490     
   0.9743589743589743        7.5949367088607597E-002   5.6551710705428278E-006 
   7.6985375162907036E-006  -1.3363249034798506E-006    100.1444164845601     
    1.000000000000000        7.5949367088607597E-002    0.000000000000000      
    0.000000000000000       -5.1357652458361694E-007    100.0000000000000     
    0.000000000000000        0.1012658227848101         0.000000000000000      
    0.000000000000000       -2.4046110899765241E-006    100.0000000000000     
   2.5641025641025640E-002   0.1012658227848101        8.5799621929069811E-008 
   1.7949274487330391E-005  -2.3516419344282890E-006    100.2441860886452     
   5.1282051282051280E-002   0.1012658227848101        6.6403831747845492E-006 
   4.8743947070005165E-006  -1.8434965400142144E-006    100.4846397279810     
   7.6923076923076927E-002   0.1012658227848101        2.7938226276508939E-005 
  -2.9600762015909040E-005  -1.0262608963680814E-006    100.7202563635595     
   0.1025641025641026        0.1012658227848101        6.9185354729854739E-005 
  -7.7437938895646923E-005   6.2146321543007086E-008    100.9498461374859     
   0.1282051282051282        0.1012658227848101        1.3369072033322154E-004 
  -1.3230732121620144E-004   1.3359875549765722E-006    101.1719606187566     
   0.1538461538461539        0.1012658227848101        2.2269862714673931E-004 
  -1.8897614686062047E-004   2.7186910758786224E-006    101.3850903518697     
   0.1794871794871795        0.1012658227848101        3.3570208035387547E-004 
  -2.4320335298705701E-004   4.1267832784358676E-006    101.5876741899818     
   0.2051282051282051        0.1012658227848101        4.7063231385729211E-004 
  -2.9156114226451210E-004   5.4806244154986710E-006    101.7781502512211     
   0.2307692307692308        0.1012658227848101        6.2413768152291870E-004 
  -3.3136326740473187E-004   6.7059529272382482E-006    101.9550226328300     
   0.2564102564102564        0.1012658227848101        7.9185793339000806E-004 
  -3.6061153057812093E-004   7.7380158035025405E-006    102.1166009682194     
   0.2820512820512821        0.1012658227848101        9.6871360310563385E-004 
  -3.7796441374826021E-004   8.5243219552079533E-006    102.2617072900572     
   0.3076923076923077        0.1012658227848101        1.1491816677897274E-003 
  -3.8270166396398334E-004   9.0266684178311515E-006    102.3890361139362     
   0.3333333333333333        0.1012658227848101        1.3275657257793224E-003 
  -3.7469538496174204E-004   9.2220177263917799E-006    102.4976825603382     
   0.3589743589743590        0.1012658227848101        1.4982423114717487E-003 
  -3.5435704010809726E-004   9.1032362046264478E-006    102.5869053261620     
   0.3846153846153846        0.1012658227848101        1.6558891309823569E-003 
  -3.2257492048865563E-004   8.6784390609702919E-006    102.6562751348901     
   0.4102564102564102        0.1012658227848101        1.7956774497342703E-003 
  -2.8063864465531198E-004   7.9694004139046727E-006    102.7055952333773     
   0.4358974358974359        0.1012658227848101        1.9134301424497252E-003 
  -2.3014762367237366E-004   7.0096362707874156E-006    102.7349179502148     
   0.4615384615384616        0.1012658227848101        2.0057381758006153E-003 
  -1.7291703410728871E-004   5.8418058562402480E-006    102.7445163966844     
   0.4871794871794872        0.1012658227848101        2.0700350637835280E-003 
  -1.1088432656697685E-004   4.5150358487639708E-006    102.7348683572959     
   0.5128205128205128        0.1012658227848101        2.1046334977313447E-003 
  -4.6025464767937624E-005   3.0822147527777478E-006    102.7066339567098     
   0.5384615384615384        0.1012658227848101        2.1087284665410656E-003 
   1.9715090687954640E-005   1.5975167715801779E-006    102.6606300213510     
   0.5641025641025641        0.1012658227848101        2.0823737957581480E-003 
   8.4476806426021510E-005   1.1424586428466894E-007    102.5978035906333     
   0.5897435897435898        0.1012658227848101        2.0264395041817173E-003 
   1.4651650587153259E-004  -1.3168879575701657E-006    102.5192043877439     
   0.6153846153846154        0.1012658227848101        1.9425573786601134E-003 
   2.0422376487001339E-004  -2.6491212991672099E-006    102.4259575193961     
   0.6410256410256411        0.1012658227848101        1.8330613845966336E-003 