 VARIABLES="X" "Y" "U<sub>x" "V<sub>y" "Pressure" "Temprature"
 Zone i=           21 ,j=           21 ,k=1,f=point
    0.000000000000000         0.000000000000000         0.000000000000000      
    0.000000000000000         0.000000000000000         100.0000000000000     
   5.0000000000000003E-002    0.000000000000000         0.000000000000000      
   6.1514131423003898E-006  -3.2807618568539529E-004    100.0000000000000     
   0.1000000000000000         0.000000000000000       -3.0746858198126873E-006 
   1.0335182870399296E-006  -1.1915695268153103E-003    100.0000000000000     
   0.1500000000000000         0.000000000000000       -1.1160004619874261E-005 
   3.7308368820032506E-006  -2.0226848014831618E-003    100.0000000000000     
   0.2000000000000000         0.000000000000000         0.000000000000000      
   6.3453839500043180E-006  -2.4857276194644130E-003    100.0000000000000     
   0.2500000000000000         0.000000000000000         0.000000000000000      
    0.000000000000000       -2.4982272931914577E-003    100.0000000000000     
   0.3000000000000000         0.000000000000000         0.000000000000000      
    0.000000000000000       -2.0728127515747172E-003    100.0000000000000     
   0.3500000000000000         0.000000000000000         0.000000000000000      
    0.000000000000000       -1.2155596773244779E-003    100.0000000000000     
   0.4000000000000000         0.000000000000000         0.000000000000000      
    0.000000000000000        4.0323996482892532E-005    100.0000000000000     
   0.4500000000000000         0.000000000000000         0.000000000000000      
    0.000000000000000        1.6447851597115987E-003    100.0000000000000     
   0.5000000000000000         0.000000000000000         0.000000000000000      
    0.000000000000000        3.4969480271696478E-003    100.0000000000000     
   0.5500000000000000         0.000000000000000         0.000000000000000      
    0.000000000000000        5.4382429805917313E-003    100.0000000000000     
   0.6000000000000000         0.000000000000000         0.000000000000000      
    0.000000000000000        7.2569196765004430E-003    100.0000000000000     
   0.6500000000000000         0.000000000000000         0.000000000000000      
    0.000000000000000        8.7204669531002910E-003    100.0000000000000     
   0.7000000000000000         0.000000000000000         0.000000000000000      
    0.000000000000000        9.6247654500246759E-003    100.0000000000000     
   0.7500000000000000         0.000000000000000         0.000000000000000      
    0.000000000000000        9.8530528206829567E-003    100.0000000000000     
   0.8000000000000000         0.000000000000000         0.000000000000000      
    0.000000000000000        9.4196092205730102E-003    100.0000000000000     
   0.8500000000000000         0.000000000000000         0.000000000000000      
    0.000000000000000        8.4862618349828261E-003    100.0000000000000     
   0.9000000000000000         0.000000000000000         0.000000000000000      
    0.000000000000000        7.3685413157863608E-003    100.0000000000000     
   0.9500000000000000         0.000000000000000         0.000000000000000      
    0.000000000000000        6.5065373042403566E-003    100.0000000000000     
    1.000000000000000         0.000000000000000         0.000000000000000      
    0.000000000000000        6.3370506426287882E-003    100.0000000000000     
    0.000000000000000        5.0000000000000003E-002   1.0252550535409312E-006 
  -1.0022726523103548E-006   3.3428392786818652E-004    100.0000000000000     
   5.0000000000000003E-002   5.0000000000000003E-002  -3.0743793040229620E-004 
   3.0336499477179578E-004  -6.1523832771404770E-006    105.1793581460092     
   0.1000000000000000        5.0000000000000003E-002  -2.2598408049476818E-003 
   1.1150411454169354E-003  -4.4430364387092945E-004    110.5201486648733     
   0.1500000000000000        5.0000000000000003E-002  -5.7748961232510776E-003 
   1.7387382916482790E-003  -8.6935482405176836E-004    115.3200779501395     
   0.2000000000000000        5.0000000000000003E-002  -1.0369883586918767E-002 
   2.0713820734941280E-003  -1.0828221196487323E-003    120.5887173002973     
   0.2500000000000000        5.0000000000000003E-002  -1.5435728223467440E-002 
   2.1682182449904164E-003  -1.0298334898665522E-003    125.5294353451852     
   0.3000000000000000        5.0000000000000003E-002  -2.0473156940285345E-002 
   2.0664250550342434E-003  -6.6836034204800082E-004    130.6033315788125     
   0.3500000000000000        5.0000000000000003E-002  -2.5033711476878721E-002 
   1.7839229830775834E-003  -9.4033141345963849E-006    134.6869883241043     
   0.4000000000000000        5.0000000000000003E-002  -2.8722558659736393E-002 
   1.3429347618613980E-003   9.3951412736493979E-004    138.0498027066646     
   0.4500000000000000        5.0000000000000003E-002  -3.1163469976271320E-002 
   7.4565635975048833E-004   2.1308131523013903E-003    140.3422319524727     
   0.5000000000000000        5.0000000000000003E-002  -3.2039013723964949E-002 
   2.4162703059651590E-005   3.4918001914263090E-003    141.6170055630667     
   0.5500000000000000        5.0000000000000003E-002  -3.1138364993069559E-002 
  -7.6169490821986405E-004   4.9065693841114453E-003    141.6879672543724     
   0.6000000000000000        5.0000000000000003E-002  -2.8438823315277657E-002 
  -1.5149096047822313E-003   6.2289087883321010E-003    140.4662702088476     
   0.6500000000000000        5.0000000000000003E-002  -2.4161734484508327E-002 
  -2.1188266748118482E-003   7.3009807869597858E-003    137.8867169556944     
   0.7000000000000000        5.0000000000000003E-002  -1.8787868583797562E-002 
  -2.4586609558258699E-003   7.9912075457581628E-003    134.0828186425111     
   0.7500000000000000        5.0000000000000003E-002  -1.3009411070559203E-002 
  -2.4566626158402274E-003   8.2273179345557050E-003    129.1788179236482     
   0.8000000000000000        5.0000000000000003E-002  -7.6211175216095266E-003 
  -2.0964765463835230E-003   8.0298236978686537E-003    123.5751896919983     
   0.8500000000000000        5.0000000000000003E-002  -3.3736767281332971E-003 
  -1.4378095481976372E-003   7.5136042279790481E-003    117.5061542256570     
   0.9000000000000000        5.0000000000000003E-002  -7.5706900510295817E-004 
  -6.2542421511752088E-004   6.8947628677136366E-003    111.4454342058231     
   0.9500000000000000        5.0000000000000003E-002   9.4930536699519869E-005 
   6.4369819191326095E-005   6.3724918115996496E-003    105.5092403182558     
    1.000000000000000        5.0000000000000003E-002   4.0136255193650218E-005 
   7.9746704618164087E-005   6.2894492351198436E-003    100.0000000000000     
    0.000000000000000        0.1000000000000000       -2.1751194847357359E-006 
   4.2515596603056127E-006   1.2632379329613305E-003    100.0000000000000     
   5.0000000000000003E-002   0.1000000000000000       -1.2185080100362944E-003 
   2.3252698875340081E-003   4.0270207736474233E-004    110.6280487011472     
   0.1000000000000000        0.1000000000000000       -5.7323490144708987E-003 
   5.4184360545389363E-003  -4.7498090728954187E-005    121.7919742116008     
   0.1500000000000000        0.1000000000000000       -1.2485476290162891E-002 
   7.8388556161660006E-003  -4.8199756782907707E-004    132.1188057499863     
   0.2000000000000000        0.1000000000000000       -2.0853912849704271E-002 
   9.1889555462736690E-003  -6.5068591737947547E-004    140.5307173080931     
   0.2500000000000000        0.1000000000000000       -2.9904058227135127E-002 
   9.5501209298357852E-003  -5.9010648343267558E-004    152.7843701365323     
   0.3000000000000000        0.1000000000000000       -3.8793622380532362E-002 
   9.0259533924060258E-003  -2.8047452417349894E-004    161.9194755525607     
   0.3500000000000000        0.1000000000000000       -4.6782415742443274E-002 
   7.7511912910138694E-003   2.9343971969135891E-004    170.8409296234154     
   0.4000000000000000        0.1000000000000000       -5.3169637797295520E-002 
   5.7479858105896064E-003   1.1068069475797318E-003    176.7353146420456     
   0.4500000000000000        0.1000000000000000       -5.7352755868881888E-002 
   3.1090334218488763E-003   2.1483936923161430E-003    180.9823682178609     
   0.5000000000000000        0.1000000000000000       -5.8812015770842177E-002 
  -3.0206849590981139E-005   3.3590196168202225E-003    182.8501589311152     
   0.5500000000000000        0.1000000000000000       -5.7236365459123272E-002 
  -3.3916195284863890E-003   4.6441444918851266E-003    182.4381494379722     
   0.6000000000000000        0.1000000000000000       -5.2615257888777807E-002 
  -6.5780294227164591E-003   5.8680594431225475E-003    179.6092657688077     
   0.6500000000000000        0.1000000000000000       -4.5320668159410223E-002 
  -9.1178221239198373E-003   6.8791848384644584E-003    174.4131508155620     
   0.7000000000000000        0.1000000000000000       -3.6119103128265703E-002 
  -1.0572858438965297E-002   7.5383794347954267E-003    166.8406287438313     
   0.7500000000000000        0.1000000000000000       -2.6109836962823915E-002 
  -1.0639648926150156E-002   7.7691156777061534E-003    157.7617440693324     
   0.8000000000000000        0.1000000000000000       -1.6549948510307756E-002 
  -9.2553810586038406E-003   7.5789123570760468E-003    146.9263915293813     
   0.8500000000000000        0.1000000000000000       -8.6364966771413972E-003 
  -6.6807811024593104E-003   7.0741060866271639E-003    135.5820257507058     
   0.9000000000000000        0.1000000000000000       -3.2222333300897391E-003 
  -3.4912214861692876E-003   6.4253593642261226E-003    123.5580761091700     
   0.9500000000000000        0.1000000000000000       -5.2566590842224956E-004 
  -7.1891762644864482E-004   5.8637404841414388E-003    111.6435490790548     
    1.000000000000000        0.1000000000000000        3.9974074669518460E-005 
   7.9227469694631596E-005   5.5324341421114677E-003    100.0000000000000     
    0.000000000000000        0.1500000000000000       -3.9362703125361505E-006 
   1.1860631395179785E-005   2.2218708853312249E-003    100.0000000000000     
   5.0000000000000003E-002   0.1500000000000000       -2.1269827916686398E-003 
   6.3250058809426243E-003   7.5887569175004733E-004    116.3142415422155     
   0.1000000000000000        0.1500000000000000       -9.2919738264504864E-003 
   1.2521075642304209E-002   2.7005599372570313E-004    133.8182764133476     
   0.1500000000000000        0.1500000000000000       -1.9137885810664560E-002 
   1.7097493102228908E-002  -1.9808695089403855E-004    149.9289992010088     
   0.2000000000000000        0.1500000000000000       -3.0896297946665062E-002 
   1.9614138058060563E-002  -3.6471818713768684E-004    164.4177029117703     
   0.2500000000000000        0.1500000000000000       -4.3264758354649532E-002 
   2.0180140630602181E-002  -3.3493092561441459E-004    174.4965791102809     
   0.3000000000000000        0.1500000000000000       -5.5424804814423037E-002 
   1.9011516736624760E-002  -6.8273662662031437E-005    196.4149479056833     
   0.3500000000000000        0.1500000000000000       -6.6222970028700534E-002 
   1.6197936282876354E-002   3.6716001370660139E-004    206.3606095011379     
   0.4000000000000000        0.1500000000000000       -7.4916940358935966E-002 
   1.1983774985784014E-002   1.0422833821796659E-003    216.2131800265465     
   0.4500000000000000        0.1500000000000000       -8.0674961372683957E-002 
   6.4613503247364515E-003   1.9222003068505812E-003    221.1430719315199     
   0.5000000000000000        0.1500000000000000       -8.2873466568824605E-002 
  -4.2033675380608328E-005   2.9927910685461248E-003    223.5419527431973     
   0.5500000000000000        0.1500000000000000       -8.1074135555111518E-002 
  -6.9830115778690919E-003   4.1723324001276445E-003    222.4140640908053     
   0.6000000000000000        0.1500000000000000       -7.5212056871899552E-002 
  -1.3569835745983222E-002   5.3391057858067350E-003    217.8886035558828     
   0.6500000000000000        0.1500000000000000       -6.5692250492176835E-002 
  -1.8892483838459023E-002   6.3333716324915686E-003    210.3755186895527     
   0.7000000000000000        0.1500000000000000       -5.3422847856423206E-002 
  -2.2067447763783370E-002   7.0112460261859333E-003    200.0997038649927     
   0.7500000000000000        0.1500000000000000       -3.9729086365872482E-002 
  -2.2485269073941858E-002   7.2704326469478818E-003    185.5347602257658     
   0.8000000000000000        0.1500000000000000       -2.6303297163365817E-002 
  -2.0001070894907429E-002   7.0822693823774470E-003    172.0658416582020     
   0.8500000000000000        0.1500000000000000       -1.4687054059780737E-002 
  -1.5081568495629799E-002   6.5568999161901642E-003    154.4813753916871     
   0.9000000000000000        0.1500000000000000       -6.1919952254604373E-003 
  -8.8229098750972779E-003   5.7998602046052351E-003    136.2619382821524     
   0.9500000000000000        0.1500000000000000       -1.2134411748156457E-003 
  -3.0093029534149873E-003   5.1351741390122576E-003    118.1519430623498     
    1.000000000000000        0.1500000000000000         0.000000000000000      
    0.000000000000000        4.3036914586828592E-003    100.0000000000000     
    0.000000000000000        0.2000000000000000         0.000000000000000      
    0.000000000000000        2.7886686187167118E-003    100.0000000000000     
   5.0000000000000003E-002   0.2000000000000000       -2.9340103165087436E-003 
   1.2249443727907421E-002   7.6389154327914514E-004    122.1385202095658     
   0.1000000000000000        0.2000000000000000       -1.2534807064387806E-002 
   2.2475828510832484E-002   1.7195701334973390E-004    145.2199243317393     
   0.1500000000000000        0.2000000000000000       -2.5273550882882360E-002 
   2.9558132288198355E-002  -4.1285482462685149E-004    168.1859593093605     
   0.2000000000000000        0.2000000000000000       -4.0079082447987739E-002 
   3.3313785327798176E-002  -6.1279287473235656E-004    187.6686115657855     
   0.2500000000000000        0.2000000000000000       -5.5534206792472167E-002 
   3.4018890875592130E-002  -7.0669523488687820E-004    205.4967985783670     
   0.3000000000000000        0.2000000000000000       -7.0381489192930913E-002 
   3.1881527568347758E-002  -5.3879863486340160E-004    213.5347572665331     
   0.3500000000000000        0.2000000000000000       -8.3978674285764568E-002 
   2.7249339819600343E-002  -1.3590467249028468E-004    244.4419695599563     
   0.4000000000000000        0.2000000000000000       -9.4876168335396263E-002 
   2.0212690834094243E-002   3.8369590015379745E-004    251.4884813913187     
   0.4500000000000000        0.2000000000000000       -0.1024970589319406      
   1.1143002337223797E-002   1.1626982559848496E-003    259.8415577046267     
   0.5000000000000000        0.2000000000000000       -0.1059245927393800      
   4.3270761546492761E-004   2.1787373719251079E-003    262.7371073931406     
   0.5500000000000000        0.2000000000000000       -0.1045810908749896      
  -1.1054815306264766E-002   3.3790215683671887E-003    262.2695650185643     
   0.6000000000000000        0.2000000000000000       -9.8221667344602470E-002 
  -2.2104244223647884E-002   4.6370654586333849E-003    257.2435692509412     
   0.6500000000000000        0.2000000000000000       -8.7081505863863345E-002 
  -3.1219620861013538E-002   5.7811176526578432E-003    246.7677877894383     
   0.7000000000000000        0.2000000000000000       -7.2094214658161113E-002 
  -3.7014895937244344E-002   6.6057418672190423E-003    233.9772985764649     
   0.7500000000000000        0.2000000000000000       -5.4800635358779166E-002 
  -3.8341672984550261E-002   6.9903866307681724E-003    220.2010146591889     
   0.8000000000000000        0.2000000000000000       -3.7215081389203354E-002 
  -3.4839740604520442E-002   6.7968593542033330E-003    199.0105294307816     
   0.8500000000000000        0.2000000000000000       -2.1451528179834478E-002 
  -2.7212847145963125E-002   6.1700341650525042E-003    175.1130955688854     
   0.9000000000000000        0.2000000000000000       -9.4180457160974538E-003 
  -1.7057474672138077E-002   5.1657340807237540E-003    150.3583066349792     
   0.9500000000000000        0.2000000000000000       -1.9089831089360726E-003 
  -6.9577364067148068E-003   4.2574218572896984E-003    125.2720052989617     
    1.000000000000000        0.2000000000000000         0.000000000000000      
    0.000000000000000        2.8808356391924368E-003    100.0000000000000     
    0.000000000000000        0.2500000000000000         0.000000000000000      
    0.000000000000000        2.7207586642993002E-003    100.0000000000000     
   5.0000000000000003E-002   0.2500000000000000       -3.6340741075744239E-003 
   1.9863781882209150E-002   2.1852207752952088E-004    127.6803586416960     
   0.1000000000000000        0.2500000000000000       -1.5383939425124161E-002 
   3.4949820761914635E-002  -4.7193441032649395E-004    156.6344261768209     
   0.1500000000000000        0.2500000000000000       -3.0651790964982217E-002 
   4.4821982619342185E-002  -1.1502396457297058E-003    185.7061221155205     
   0.2000000000000000        0.2500000000000000       -4.8186070415309652E-002 
   4.9825845588481493E-002  -1.4653624173419579E-003    208.5836888109343     
   0.2500000000000000        0.2500000000000000       -6.6252427642199574E-002 
   5.0514365231981745E-002  -1.6468574387989974E-003    226.5086838443285     
   0.3000000000000000        0.2500000000000000       -8.3953275062119997E-002 
   4.7423310965373000E-002  -1.7310724122764037E-003    247.2652085875417     
   0.3500000000000000        0.2500000000000000       -9.9742411875318196E-002 
   4.0585465276685495E-002  -1.4340474657011206E-003    256.0344887269885     
   0.4000000000000000        0.2500000000000000       -0.1133865278017041      
   3.0595784510650252E-002  -9.7681480071177889E-004    287.8194384726153     
   0.4500000000000000        0.2500000000000000       -0.1232378650940637      
   1.7610794916415998E-002  -3.3713886925583280E-004    291.0131625122133     
   0.5000000000000000        0.2500000000000000       -0.1286361749162710      
   2.1300163256991389E-003   6.6560481704551846E-004    296.6817042663370     
   0.5500000000000000        0.2500000000000000       -0.1286563003021595      
  -1.4702811001006462E-002   1.9376372225245026E-003    296.8192691796718     
   0.6000000000000000        0.2500000000000000       -0.1227219083407094      
  -3.1271897480087664E-002   3.3900812701081113E-003    293.4443851877427     
   0.6500000000000000        0.2500000000000000       -0.1108173061515507      
  -4.5550177332865795E-002   4.7731010252341256E-003    285.5734084355618     
   0.7000000000000000        0.2500000000000000       -9.3322624895724501E-002 
  -5.5101197394416788E-002   5.9715546117521607E-003    263.8443871490031     
   0.7500000000000000        0.2500000000000000       -7.2455580205590758E-002 
  -5.8336270385820468E-002   6.5986843429087531E-003    258.7124497600784     
   0.8000000000000000        0.2500000000000000       -5.0185733933089546E-002 
  -5.4293756407541985E-002   6.4648066920729406E-003    229.5771239158159     
   0.8500000000000000        0.2500000000000000       -2.9510777959213075E-002 
  -4.3670882097374339E-002   5.7794759425710629E-003    198.8405588176972     
   0.9000000000000000        0.2500000000000000       -1.3207011668592289E-002 
  -2.8659665358945801E-002   4.4955221687505292E-003    166.6402088043618     
   0.9500000000000000        0.2500000000000000       -2.7186275214972255E-003 
  -1.2754495011058669E-002   3.2824991092934189E-003    133.2599172232198     
    1.000000000000000        0.2500000000000000         0.000000000000000      
    0.000000000000000        1.3102468256685892E-003    100.0000000000000     
    0.000000000000000        0.3000000000000000         0.000000000000000      
    0.000000000000000        1.8234620622189373E-003    100.0000000000000     
   5.0000000000000003E-002   0.3000000000000000       -4.2028702253908571E-003 
   2.8919173658065959E-002  -1.0758331534494708E-003    132.8581752397757     
   0.1000000000000000        0.3000000000000000       -1.7722441763179709E-002 
   4.9590013768049328E-002  -1.8632536588066464E-003    166.8604268681808     
   0.1500000000000000        0.3000000000000000       -3.5077120730889776E-002 
   6.2441603775798223E-002  -2.6710697683902320E-003    194.4073736092423     
   0.2000000000000000        0.3000000000000000       -5.4944767774308706E-002 
   6.8805687575373725E-002  -3.0870701733397535E-003    230.7281687781246     
   0.2500000000000000        0.3000000000000000       -7.5325743551094018E-002 
   6.9566974149612118E-002  -3.4611140033022291E-003    252.6497647088933     
   0.3000000000000000        0.3000000000000000       -9.5305690472450355E-002 
   6.5341571017214314E-002  -3.7572851450850073E-003    267.6215004684177     
   0.3500000000000000        0.3000000000000000       -0.1135998096179091      
   5.6559985554437489E-002  -3.7193401778609840E-003    280.6393684182928     
   0.4000000000000000        0.3000000000000000       -0.1300786747572802      
   4.3659058684287697E-002  -3.3085839716386878E-003    322.4638909850762     
   0.4500000000000000        0.3000000000000000       -0.1425186431006826      
   2.6428010607642768E-002  -2.8963803923873679E-003    318.3422670070195     
   0.5000000000000000        0.3000000000000000       -0.1506984389066467      
   5.9070426765022253E-003  -1.9652716992117620E-003    322.8914907027683     
   0.5500000000000000        0.3000000000000000       -0.1530989508675463      
  -1.6989529043994346E-002  -5.8409211076255064E-004    322.7947630558047     
   0.6000000000000000        0.3000000000000000       -0.1488309459629769      
  -4.0179112576413267E-002   1.1128500358084353E-003    319.7708780395377     
   0.6500000000000000        0.3000000000000000       -0.1370294456609872      
  -6.1017793684338080E-002   3.0884141674986654E-003    312.4831689723028     
   0.7000000000000000        0.3000000000000000       -0.1182887021283707      
  -7.6266101608102863E-002   4.9207597413534346E-003    314.4895186414074     
   0.7500000000000000        0.3000000000000000       -9.3587393531705768E-002 
  -8.2731299451498652E-002   5.9543408049041822E-003    287.6004963042310     
   0.8000000000000000        0.3000000000000000       -6.6184243336862111E-002 
  -7.9007734726971465E-002   6.1726227960248172E-003    260.4017875385447     
   0.8500000000000000        0.3000000000000000       -3.9565495232204484E-002 
  -6.5354216113441180E-002   5.4662538431932816E-003    222.9993392102765     
   0.9000000000000000        0.3000000000000000       -1.7981446234729161E-002 
  -4.4376334232216541E-002   3.8487607865190002E-003    184.5857571945871     
   0.9500000000000000        0.3000000000000000       -3.7397944603896772E-003 
  -2.0776374189893438E-002   2.2453887213781669E-003    142.0722329646817     
    1.000000000000000        0.3000000000000000         0.000000000000000      
    0.000000000000000       -4.8763796334588626E-004    100.0000000000000     
    0.000000000000000        0.3500000000000000         0.000000000000000      
    0.000000000000000       -7.0055241144715300E-005    100.0000000000000     
   5.0000000000000003E-002   0.3500000000000000       -4.6266996026261787E-003 
   3.9104122379020202E-002  -3.2701508077317407E-003    137.5492826755711     
   0.1000000000000000        0.3500000000000000       -1.9450830792004978E-002 
   6.5937613661597338E-002  -4.1171443537177908E-003    175.5190742438958     
   0.1500000000000000        0.3500000000000000       -3.8490699639435341E-002 
   8.2118154107900618E-002  -5.0810172127214500E-003    211.1968257044986     
   0.2000000000000000        0.3500000000000000       -5.9992145970285508E-002 
   8.9821722756709937E-002  -5.5315954689051467E-003    251.0670340248380     
   0.2500000000000000        0.3500000000000000       -8.2078964911190919E-002 
   9.0582638555065806E-002  -6.2373673250799809E-003    268.5522456613934     
   0.3000000000000000        0.3500000000000000       -0.1039616108612022      
   8.5473323143424082E-002  -6.7962640148278401E-003    283.8178367320414     
   0.3500000000000000        0.3500000000000000       -0.1247603621367006      
   7.5068942766083585E-002  -7.3124644119640743E-003    302.7734085063899     
   0.4000000000000000        0.3500000000000000       -0.1428579384117360      
   5.9058847918244423E-002  -7.1053055261699792E-003    302.0185278410268     
   0.4500000000000000        0.3500000000000000       -0.1589867929859204      
   3.8331742772333123E-002  -6.7278806149868118E-003    338.1598196707411     
   0.5000000000000000        0.3500000000000000       -0.1704308524953596      
   1.2801223364493028E-002  -6.0544624465655858E-003    331.8400025126119     
   0.5500000000000000        0.3500000000000000       -0.1764431909743820      
  -1.6495342066135215E-002  -4.5717525078024261E-003    339.7234802351771     
   0.6000000000000000        0.3500000000000000       -0.1753565291618441      
  -4.7319994082669951E-002  -2.6096176817075683E-003    340.9632443917181     
   0.6500000000000000        0.3500000000000000       -0.1654371853666091      
  -7.6490314629642758E-002   6.8970051557860193E-005    341.2103230460486     
   0.7000000000000000        0.3500000000000000       -0.1466305625640890      
  -9.9728136283148403E-002   2.7628266950487598E-003    351.9846883839356     
   0.7500000000000000        0.3500000000000000       -0.1190340140482158      
  -0.1119423209916878        4.5889501423034508E-003    330.0631174177491     
   0.8000000000000000        0.3500000000000000       -8.6246437782645916E-002 
  -0.1102168585117602        5.4208177181537314E-003    303.5497339910433     
   0.8500000000000000        0.3500000000000000       -5.2557152942792409E-002 
  -9.3726902154243771E-002   5.0455115003618994E-003    258.6645603982752     
   0.9000000000000000        0.3500000000000000       -2.4253187901329961E-002 
  -6.5427328653280409E-002   3.1415472379727129E-003    206.4691336080373     
   0.9500000000000000        0.3500000000000000       -5.1254124287635136E-003 
  -3.1746821515413470E-002   1.1368453014822073E-003    152.9819277789670     
    1.000000000000000        0.3500000000000000         0.000000000000000      
    0.000000000000000       -2.5963325605525612E-003    100.0000000000000     
    0.000000000000000        0.4000000000000000         0.000000000000000      
    0.000000000000000       -3.0916857405369259E-003    100.0000000000000     
   5.0000000000000003E-002   0.4000000000000000       -4.8707943038026526E-003 
   5.0050533217276101E-002  -6.4734137644392124E-003    141.6976685051835     
   0.1000000000000000        0.4000000000000000       -2.0469710690804138E-002 
   8.3483835795839484E-002  -7.3816296668375086E-003    184.0482524351122     
   0.1500000000000000        0.4000000000000000       -4.0486872412836002E-002 
   0.1030629900193454       -8.5274029922432527E-003    222.1840639370321     
   0.2000000000000000        0.4000000000000000       -6.2847036287492539E-002 
   0.1117881530465905       -9.1931181627859376E-003    238.7509950507383     
   0.2500000000000000        0.4000000000000000       -8.6339269961294943E-002 
   0.1131724110622695       -1.0073093465315810E-002    287.8407938362542     
   0.3000000000000000        0.4000000000000000       -0.1092656111034514      
   0.1074752909512141       -1.1011223472121372E-002    304.1486333936721     
   0.3500000000000000        0.4000000000000000       -0.1314524477973639      
   9.5335970080463350E-002  -1.2062619619531910E-002    302.3128860364857     
   0.4000000000000000        0.4000000000000000       -0.1517349094071236      
   7.7429115931158060E-002  -1.2415975093999941E-002    312.5976487685095     
   0.4500000000000000        0.4000000000000000       -0.1707642291013385      
   5.3656737131582394E-002  -1.2266965743818411E-002    343.6392649771728     
   0.5000000000000000        0.4000000000000000       -0.1854130556981864      
   2.3261969439453668E-002  -1.2078298873818878E-002    326.7449940232551     
   0.5500000000000000        0.4000000000000000       -0.1955471854720025      
  -1.2162634990407813E-002  -1.0725283210220407E-002    328.3649119050684     
   0.6000000000000000        0.4000000000000000       -0.1988582396563555      
  -5.1096918042311611E-002  -8.5588729675151656E-003    331.4755851339776     
   0.6500000000000000        0.4000000000000000       -0.1926849262395755      
  -8.9977467709612832E-002  -4.9906935919054535E-003    338.1525036986842     
   0.7000000000000000        0.4000000000000000       -0.1761915417750923      
  -0.1237116087305213       -9.5815128601325949E-004    363.5394841747056     
   0.7500000000000000        0.4000000000000000       -0.1475299904164642      
  -0.1446999456712268        2.2015321060218965E-003    347.7311809395750     
   0.8000000000000000        0.4000000000000000       -0.1099848651091991      
  -0.1475646598229244        4.3750807562516975E-003    326.9036722484033     
   0.8500000000000000        0.4000000000000000       -6.8920524584026380E-002 