 VARIABLES="X" "Y" "U<sub>x" "V<sub>y" "Pressure" "Temprature"
 Zone i=           31 ,j=           31 ,k=1,f=point
    0.000000000000000         0.000000000000000         0.000000000000000      
    0.000000000000000         0.000000000000000         100.0000000000000     
   3.1323087359530280E-002   1.1400671444188958E-002    0.000000000000000      
  -2.3456114432377223E-007   1.9969222602719069E-005    100.0000000000000     
   6.2646174719060560E-002   2.2801342888377915E-002   1.3903740905059532E-007 
  -3.9511695059743486E-008   2.2851897961306717E-005    100.0000000000000     
   9.3969262078590840E-002   3.4202014332566873E-002   1.5910906522973240E-007 
  -4.4735509555444591E-008  -5.6238342037461829E-005    100.0000000000000     
   0.1252923494381211        4.5602685776755830E-002    0.000000000000000      
   1.1009395537414443E-007  -2.3268775830574256E-004    100.0000000000000     
   0.1566154367976514        5.7003357220944781E-002    0.000000000000000      
    0.000000000000000       -4.9009161195562973E-004    100.0000000000000     
   0.1879385241571817        6.8404028665133745E-002    0.000000000000000      
    0.000000000000000       -7.9965713019403291E-004    100.0000000000000     
   0.2192616115167120        7.9804700109322696E-002    0.000000000000000      
    0.000000000000000       -1.1292843618085496E-003    100.0000000000000     
   0.2505846988762422        9.1205371553511660E-002    0.000000000000000      
    0.000000000000000       -1.4485100192221127E-003    100.0000000000000     
   0.2819077862357726        0.1026060429977006         0.000000000000000      
    0.000000000000000       -1.7309872575063164E-003    100.0000000000000     
   0.3132308735953028        0.1140067144418896         0.000000000000000      
    0.000000000000000       -1.9553462726652391E-003    100.0000000000000     
   0.3445539609548331        0.1254073858860785         0.000000000000000      
    0.000000000000000       -2.1051276603842638E-003    100.0000000000000     
   0.3758770483143634        0.1368080573302675         0.000000000000000      
    0.000000000000000       -2.1680953947419103E-003    100.0000000000000     
   0.4072001356738937        0.1482087287744564         0.000000000000000      
    0.000000000000000       -2.1358578276045774E-003    100.0000000000000     
   0.4385232230334239        0.1596094002186454         0.000000000000000      
    0.000000000000000       -2.0034598196473140E-003    100.0000000000000     
   0.4698463103929542        0.1710100716628344         0.000000000000000      
    0.000000000000000       -1.7696818243628136E-003    100.0000000000000     
   0.5011693977524845        0.1824107431070233         0.000000000000000      
    0.000000000000000       -1.4379048455339066E-003    100.0000000000000     
   0.5324924851120148        0.1938114145512123         0.000000000000000      
    0.000000000000000       -1.0174201722061825E-003    100.0000000000000     
   0.5638155724715451        0.2052120859954013         0.000000000000000      
    0.000000000000000       -5.2495303706527716E-004    100.0000000000000     
   0.5951386598310754        0.2166127574395902         0.000000000000000      
    0.000000000000000        1.4011604598729795E-005    100.0000000000000     
   0.6264617471906057        0.2280134288837791         0.000000000000000      
    0.000000000000000        5.6451752173876499E-004    100.0000000000000     
   0.6577848345501358        0.2394141003279681         0.000000000000000      
    0.000000000000000        1.0825960095395847E-003    100.0000000000000     
   0.6891079219096662        0.2508147717721571         0.000000000000000      
    0.000000000000000        1.5171096850878534E-003    100.0000000000000     
   0.7204310092691965        0.2622154432163460         0.000000000000000      
    0.000000000000000        1.8137941405352001E-003    100.0000000000000     
   0.7517540966287267        0.2736161146605350         0.000000000000000      
    0.000000000000000        1.9203632949584474E-003    100.0000000000000     
   0.7830771839882570        0.2850167861047239         0.000000000000000      
    0.000000000000000        1.7956992701362200E-003    100.0000000000000     
   0.8144002713477874        0.2964174575489129         0.000000000000000      
    0.000000000000000        1.4153543414859603E-003    100.0000000000000     
   0.8457233587073176        0.3078181289931019         0.000000000000000      
    0.000000000000000        7.9021722950794700E-004    100.0000000000000     
   0.8770464460668478        0.3192188004372908         0.000000000000000      
    0.000000000000000       -2.6372061583440012E-005    100.0000000000000     
   0.9083695334263781        0.3306194718814798         0.000000000000000      
    0.000000000000000       -8.1238640934868257E-004    100.0000000000000     
   0.9396926207859084        0.3420201433256687         0.000000000000000      
    0.000000000000000       -1.1035547338335682E-003    100.0000000000000     
    0.000000000000000        3.3333333333333333E-002  -5.5831115944489229E-008 
   3.7837143739736179E-008  -1.9964057135729156E-005    100.0000000000000     
   3.1323087359530280E-002   4.4734004777522290E-002   2.7014210079584905E-005 
  -1.8825372856041303E-005  -1.3936283798905432E-007    100.7574738694795     
   6.2646174719060560E-002   5.6134676221711248E-002   1.0752728936209237E-004 
  -9.4741105144851833E-006  -2.8516604219331001E-005    101.7934742039373     
   9.3969262078590840E-002   6.7535347665900206E-002   1.6231686817766485E-004 
   3.1209811993332123E-005  -1.1589461499883921E-004    103.0253235630966     
   0.1252923494381211        7.8936019110089156E-002   1.1410242772260781E-004 
   7.0617026872969634E-005  -2.6575374606188483E-004    104.3961017262917     
   0.1566154367976514        9.0336690554278121E-002  -9.6344891389260620E-005 
   7.5159943131070111E-005  -4.6545737938501192E-004    105.8655258646641     
   0.1879385241571817        0.1017373619984671       -5.0278194173983086E-004 
   2.0231264214571208E-005  -6.9532934873452917E-004    107.4029210643529     
   0.2192616115167120        0.1131380334426560       -1.1152977149977562E-003 
  -1.0841097841183166E-004  -9.3339363673715359E-004    108.9852220952904     
   0.2505846988762422        0.1245387048868450       -1.9246360744781020E-003 
  -3.1562574833537049E-004  -1.1583704659320104E-003    110.5963813696734     
   0.2819077862357726        0.1359393763310340       -2.9066666055985579E-003 
  -5.9869293010591249E-004  -1.3515861571102026E-003    112.2289982209962     
   0.3132308735953028        0.1473400477752229       -4.0264758115673314E-003 
  -9.4915088480407425E-004  -1.4976459924089702E-003    113.8629318258037     
   0.3445539609548331        0.1587407192194119       -5.2415332621730147E-003 
  -1.3543778184551610E-003  -1.5845508969272171E-003    115.4733591716787     
   0.3758770483143634        0.1701413906636008       -6.5037955809984661E-003 
  -1.7990636762950077E-003  -1.6037825597553248E-003    117.0093948250420     
   0.4072001356738937        0.1815420621077898       -7.7611479397724174E-003 
  -2.2658916680025881E-003  -1.5498612463590042E-003    118.4224517784703     
   0.4385232230334239        0.1929427335519787       -8.9579582471529008E-003 
  -2.7361263978372798E-003  -1.4205558891195473E-003    119.6625384429718     
   0.4698463103929542        0.2043434049961677       -1.0035844632846840E-002 
  -3.1897741847653660E-003  -1.2172237565709039E-003    120.6977916864716     
   0.5011693977524845        0.2157440764403567       -1.0934754614267853E-002 
  -3.6056826108705332E-003  -9.4553699407554852E-004    121.5065644947660     
   0.5324924851120148        0.2271447478845456       -1.1595064823667055E-002 
  -3.9617893813399929E-003  -6.1640230666174672E-004    122.0753397672339     
   0.5638155724715451        0.2385454193287346       -1.1960904634929435E-002 
  -4.2356992419868905E-003  -2.4687578502922991E-004    122.3927170579989     
   0.5951386598310754        0.2499460907729235       -1.1984774596852849E-002 
  -4.4057226458872308E-003   1.3928526905260705E-004    122.4468169121368     
   0.6264617471906057        0.2613467622171125       -1.1633368369496751E-002 
  -4.4524395407353505E-003   5.1167557560644679E-004    122.2249172193036     
   0.6577848345501358        0.2727474336613014       -1.0894029493106855E-002 
  -4.3607792284866553E-003   8.3445831359903373E-004    121.7136893167164     
   0.6891079219096662        0.2841481051054904       -9.7815112837480959E-003 
  -4.1224106951888058E-003   1.0686088444966891E-003    120.8976862036700     
   0.7204310092691965        0.2955487765496793       -8.3434321417426172E-003 
  -3.7384347946870650E-003   1.1763300382888666E-003    119.7593758945896     
   0.7517540966287267        0.3069494479938683       -6.6652668453561674E-003 
  -3.2214405762774497E-003   1.1255141525796366E-003    118.2765274538302     
   0.7830771839882570        0.3183501194380572       -4.8697471919271146E-003 
  -2.5982179927856171E-003   8.9889539877967034E-004    116.4281904268364     
   0.8144002713477874        0.3297507908822462       -3.1197504173166822E-003 
  -1.9087941942144539E-003   4.9737874872284352E-004    114.1965241942844     
   0.8457233587073176        0.3411514623264352       -1.6003311415543546E-003 
  -1.2088446019733392E-003  -3.5803375308359873E-005    111.5618086000413     
   0.8770464460668478        0.3525521337706241       -5.2266866427230860E-004 
  -5.5649580898370658E-004  -6.2893655682838383E-004    108.4912458988821     
   0.9083695334263781        0.3639528052148131       -2.4261102410999738E-005 
  -3.8134547912045085E-005  -1.1170349487649109E-003    104.8508391583729     
   0.9396926207859084        0.3753534766590020       -1.0535820851691615E-006 
  -8.0718924431512085E-006  -1.4052430572553017E-003    100.0000000000000     
    0.000000000000000        6.6666666666666666E-002   2.2923100773865688E-007 
  -2.1827166508041497E-007  -2.3612222732078512E-005    100.0000000000000     
   3.1323087359530280E-002   7.8067338110855616E-002   4.6210128088803778E-005 
  -9.7971464922269751E-005   2.8716117104675299E-005    101.7892759947200     
   6.2646174719060560E-002   8.9468009555044581E-002   1.1182125376911973E-004 
  -7.7072703700896189E-005  -4.2431867372903250E-007    104.0194087307460     
   9.3969262078590840E-002   0.1008686809992336        3.2021908098029225E-005 
   5.0617198390826208E-005  -8.5118410105861468E-005    106.5977852196442     
   0.1252923494381211        0.1122693524434225       -2.9962063180771200E-004 
   2.1819287064477722E-004  -2.2680161599859436E-004    109.4301154766217     
   0.1566154367976514        0.1236700238876115       -9.6043140305115157E-004 
   3.5038618695709114E-004  -4.0748293162553098E-004    112.4505019766500     
   0.1879385241571817        0.1350706953318004       -1.9852946662548871E-003 
   3.8643140859591417E-004  -6.0910390953560476E-004    115.5856366887449     
   0.2192616115167120        0.1464713667759894       -3.3739486800032702E-003 
   2.8489834029414677E-004  -8.1208005840172472E-004    118.7866835219826     
   0.2505846988762422        0.1578720382201783       -5.0964360368606302E-003 
   2.3766271777566759E-005  -9.9872193701895347E-004    122.0449956295378     
   0.2819077862357726        0.1692727096643673       -7.0998544628660112E-003 
  -4.0219041507893728E-004  -1.1538338964737897E-003    125.3231493562086     
   0.3132308735953028        0.1806733811085562       -9.3142865410507144E-003 
  -9.8515241905703906E-004  -1.2653021897643328E-003    128.6264841796832     
   0.3445539609548331        0.1920740525527452       -1.1656956106813363E-002 
  -1.7078422412648646E-003  -1.3243455033441567E-003    131.8514542111961     
   0.3758770483143634        0.2034747239969342       -1.4036172905368290E-002 
  -2.5459450206398553E-003  -1.3246184779656556E-003    134.9191932805359     
   0.4072001356738937        0.2148753954411231       -1.6352709940411839E-002 
  -3.4708413955793741E-003  -1.2626902887332662E-003    137.6920605623707     
   0.4385232230334239        0.2262760668853120       -1.8502109054541468E-002 
  -4.4504770450975581E-003  -1.1378232586278852E-003    140.0919083950950     
   0.4698463103929542        0.2376767383295010       -2.0376359289060016E-002 
  -5.4495428447199970E-003  -9.5244551100046992E-004    142.0573992281304     
   0.5011693977524845        0.2490774097736900       -2.1867262153015769E-002 
  -6.4291904270276923E-003  -7.1287287386908921E-004    143.5574439184563     
   0.5324924851120148        0.2604780812178789       -2.2871403763571323E-002 
  -7.3466029218108133E-003  -4.3015879573593226E-004    144.5698093585886     
   0.5638155724715451        0.2718787526620679       -2.3297083900759262E-002 
  -8.1550205097152238E-003  -1.2086001871287205E-004    145.0718210851247     
   0.5951386598310754        0.2832794241062568       -2.3073108970189514E-002 
  -8.8046040471440393E-003   1.9256458547663659E-004    145.0387579466314     
   0.6264617471906057        0.2946800955504458       -2.2158935117859300E-002 
  -9.2443704963885917E-003   4.8200525873214013E-004    144.4441537042004     
   0.6577848345501358        0.3060807669946348       -2.0555083123198658E-002 
  -9.4254342391126150E-003   7.1515625073008643E-004    143.2624897078226     
   0.6891079219096662        0.3174814384388237       -1.8313059065044743E-002 
  -9.3054971816069615E-003   8.5778543868900788E-004    141.4714308798465     
   0.7204310092691965        0.3288821098830126       -1.5542050306027472E-002 
  -8.8541655744931985E-003   8.7851839966390766E-004    139.0334347572197     
   0.7517540966287267        0.3402827813272016       -1.2413592660931134E-002 
  -8.0592969577615928E-003   7.5207791167541526E-004    135.9101688166966     
   0.7830771839882570        0.3516834527713906       -9.1561674320365990E-003 
  -6.9313790907220328E-003   4.7099654805760099E-004    132.0594782017893     
   0.8144002713477874        0.3630841242155795       -6.0507866371429658E-003 
  -5.5113304191961631E-003   3.9555796987576178E-005    127.4454709243473     
   0.8457233587073176        0.3744847956597685       -3.3840147015644180E-003 
  -3.8767320957256838E-003  -4.9190124703462138E-004    122.0892808289531     
   0.8770464460668478        0.3858854671039574       -1.4460467328933401E-003 
  -2.1533846075753467E-003  -1.0967478601431519E-003    115.8757897586697     
   0.9083695334263781        0.3972861385481464       -2.9733559191681328E-004 
  -6.3903619060186692E-004  -1.6181577943271306E-003    108.6200233128264     
   0.9396926207859084        0.4086868099923354       -1.5194770047086263E-006 
  -1.0547274753636479E-005  -2.2180482797597443E-003    100.0000000000000     
    0.000000000000000        0.1000000000000000        9.9667776709338051E-008 
  -1.3867170338221207E-007   5.5794834424597745E-005    100.0000000000000     
   3.1323087359530280E-002   0.1114006714441890        2.7491029279510672E-005 
  -1.6450860660522035E-004   1.1727588299645962E-004    103.0212123301381     
   6.2646174719060560E-002   0.1228013428883779       -3.6827420846263069E-005 
  -4.5389275928199867E-005   8.2142515208420428E-005    106.6200133205250     
   9.3969262078590840E-002   0.1342020143325669       -4.0470014155735625E-004 
   2.7745589861055843E-004  -5.9946363727193389E-006    110.6842289859764     
   0.1252923494381211        0.1456026857767558       -1.1919290400333787E-003 
   6.8159872336285882E-004  -1.4278896132539684E-004    115.1100253813722     
   0.1566154367976514        0.1570033572209448       -2.4708688161905481E-003 
   1.0447635844070984E-003  -3.0696918512062817E-004    119.7726171513085     
   0.1879385241571817        0.1684040286651338       -4.2597078706239702E-003 
   1.2667397180913861E-003  -4.8243977409067012E-004    124.5898291929065     
   0.2192616115167120        0.1798047001093227       -6.5351774386135869E-003 
   1.2762687495866175E-003  -6.5263791744019908E-004    129.4691548004713     
   0.2505846988762422        0.1912053715535117       -9.2386872698482312E-003 
   1.0316664208163775E-003  -8.0373288587623677E-004    134.3106663605103     
   0.2819077862357726        0.2026060429977006       -1.2286096452529299E-002 
   5.1570012969187357E-004  -9.2471809355807073E-004    139.3204801870040     
   0.3132308735953028        0.2140067144418896       -1.5571158021634716E-002 
  -2.6837673663177421E-004  -1.0073383544731340E-003    144.2582933414466     
   0.3445539609548331        0.2254073858860785       -1.8974264963474468E-002 
  -1.3016498674367624E-003  -1.0450528780220013E-003    149.1950815196924     
   0.3758770483143634        0.2368080573302675       -2.2362462911044198E-002 
  -2.5553653502917504E-003  -1.0345827168445113E-003    153.7667404321242     
   0.4072001356738937        0.2482087287744564       -2.5595769517808301E-002 
  -3.9931360911989490E-003  -9.7397748977701983E-004    157.8690584103946     
   0.4385232230334239        0.2596094002186454       -2.8527541940603588E-002 
  -5.5723927632192506E-003  -8.6343550322190779E-004    161.3458426359980     
   0.4698463103929542        0.2710100716628344       -3.1009114037841696E-002 
  -7.2442258049335096E-003  -7.0577762710194545E-004    164.1442844553637     
   0.5011693977524845        0.2824107431070233       -3.2895247881461448E-002 
  -8.9516847659203685E-003  -5.0713852021697949E-004    166.2371847955870     
   0.5324924851120148        0.2938114145512123       -3.4051723412753886E-002 
  -1.0628186904236451E-002  -2.7785333780294962E-004    167.5943093257193     
   0.5638155724715451        0.3052120859954013       -3.4365573017736871E-002 
  -1.2196513684407599E-002  -3.3268301342983133E-005    168.1818116428678     
   0.5951386598310754        0.3166127574395902       -3.3756820737092068E-002 
  -1.3569040213290895E-002   2.0597042055031924E-004    167.9564438674460     
   0.6264617471906057        0.3280134288837792       -3.2191288949613900E-002 
  -1.4649975352924874E-002   4.1413671490863544E-004    166.8716823892249     
   0.6577848345501358        0.3394141003279682       -2.9692898190442713E-002 
  -1.5340028609838557E-002   5.6206022836737836E-004    164.8863198114691     
   0.6891079219096662        0.3508147717721570       -2.6354374948626944E-002 
  -1.5543332550778581E-002   6.1928018347603964E-004    161.9737233026928     
   0.7204310092691965        0.3622154432163460       -2.2343091154703291E-002 
  -1.5178127090314342E-002   5.5899664284647850E-004    158.1501222346369     
   0.7517540966287267        0.3736161146605350       -1.7901457668332444E-002 
  -1.4184315074736638E-002   3.6196728391337180E-004    153.2475819112742     
   0.7830771839882570        0.3850167861047239       -1.3336518840521479E-002 
  -1.2543962487257563E-002   2.1878695242373169E-005    147.2274542627753     
   0.8144002713477874        0.3964174575489129       -9.0075256050986385E-003 
  -1.0292595144270342E-002  -4.5641900283167886E-004    140.1826348184347     
   0.8457233587073176        0.4078181289931019       -5.2537303081097745E-003 
  -7.5474946717572038E-003  -1.0250722008255863E-003    132.0117284925647     
   0.8770464460668478        0.4192188004372908       -2.4027596140071840E-003 
  -4.5533816724055475E-003  -1.6938647342598127E-003    122.6187271259555     
   0.9083695334263781        0.4306194718814798       -5.3238113022531367E-004 
  -1.7884331603477297E-003  -2.3016100948468569E-003    112.0430273874780     
   0.9396926207859084        0.4420201433256688         0.000000000000000      
    0.000000000000000       -3.1846341738584975E-003    100.0000000000000     
    0.000000000000000        0.1333333333333333         0.000000000000000      
    0.000000000000000        2.3783273139230406E-004    100.0000000000000     
   3.1323087359530280E-002   0.1447340047775223       -2.7806032051117827E-005 
  -1.3175531874462041E-004   2.7199612101682253E-004    104.4320149049832     
   6.2646174719060560E-002   0.1561346762217112       -3.2716605069918518E-004 
   2.1746114853955643E-004   2.2197295214578083E-004    109.5649951960087     
   9.3969262078590840E-002   0.1675353476659002       -1.1108515141749890E-003 
   8.7441927877940557E-004   1.1794666552296464E-004    115.2738002030743     
   0.1252923494381211        0.1789360191100892       -2.4927965393859992E-003 
   1.6447573236274056E-003  -2.6316079138469212E-005    121.4288389295752     
   0.1566154367976514        0.1903366905542781       -4.5240974563614820E-003 
   2.3513788437250029E-003  -1.8940791561628299E-004    127.8557664071663     
   0.1879385241571817        0.2017373619984671       -7.1950734592912168E-003 
   2.8511947773712494E-003  -3.5618837170442506E-004    134.3893889952840     
   0.2192616115167120        0.2131380334426560       -1.0449863496076017E-002 
   3.0413112689078514E-003  -5.1209121816534820E-004    140.9989559711028     
   0.2505846988762422        0.2245387048868450       -1.4196270935655694E-002 
   2.8587543232792383E-003  -6.4773973470847021E-004    147.5120308055603     
   0.2819077862357726        0.2359393763310340       -1.8313464543788117E-002 
   2.2748988123492448E-003  -7.5331814545595891E-004    153.6952576805712     
   0.3132308735953028        0.2473400477752229       -2.2665679447153919E-002 
   1.2850685925024881E-003  -8.2298673142892464E-004    160.7068038237952     
   0.3445539609548331        0.2587407192194119       -2.7090317135305322E-002 
  -9.3769460609891906E-005  -8.5533469082775960E-004    167.1836764404530     
   0.3758770483143634        0.2701413906636008       -3.1422836123723499E-002 
  -1.8296641280318938E-003  -8.4713772053985150E-004    173.3559861987885     
   0.4072001356738937        0.2815420621077898       -3.5485245923275816E-002 
  -3.8805261861862218E-003  -7.9740804024321403E-004    178.7258861987565     
   0.4385232230334239        0.2929427335519788       -3.9095818121258764E-002 
  -6.1952582305318049E-003  -7.0660194904324726E-004    183.2140346935159     
   0.4698463103929542        0.3043434049961677       -4.2073668064020936E-002 
  -8.7108512750106674E-003  -5.7680815123625296E-004    186.8182341215163     
   0.5011693977524845        0.3157440764403566       -4.4244726784816654E-002 
  -1.1349831246351631E-002  -4.1303182202744688E-004    189.4996245279420     
   0.5324924851120148        0.3271447478845456       -4.5453024361589690E-002 
  -1.4016649583998916E-002  -2.2431413112382985E-004    191.2286071112381     
   0.5638155724715451        0.3385454193287346       -4.5572493691971569E-002 
  -1.6595198274190561E-002  -2.4513270854181833E-005    191.9422105252866     
   0.5951386598310754        0.3499460907729235       -4.4520587414808070E-002 
  -1.8948643287858877E-002   1.6701107001265223E-004    191.5555252630681     
   0.6264617471906057        0.3613467622171125       -4.2272735747735539E-002 
  -2.0921948105722284E-002   3.2554844971470622E-004    189.9737663234508     
   0.6577848345501358        0.3727474336613015       -3.8875078776756646E-002 
  -2.2348225800551368E-002   4.2290488880731430E-004    187.1120415317204     
   0.6891079219096662        0.3841481051054904       -3.4456563656481830E-002 
  -2.3060281623997234E-002   4.2851257445699308E-004    182.9266180568064     
   0.7204310092691965        0.3955487765496794       -2.9230513523142508E-002 
  -2.2904870067663844E-002   3.1774405873202062E-004    177.4457858073693     
   0.7517540966287267        0.4069494479938683       -2.3498533098238392E-002 
  -2.1769318524798860E-002   6.5106536327917756E-005    171.2432917443503     
   0.7830771839882570        0.4183501194380572       -1.7624961528515976E-002 
  -1.9582321670173940E-002  -3.3045502423399996E-004    162.4372614931165     
   0.8144002713477874        0.4297507908822462       -1.2039228320953860E-002 
  -1.6386403268407804E-002  -8.7395992282384262E-004    152.9097118879974     
   0.8457233587073176        0.4411514623264352       -7.1305020461649004E-003 
  -1.2357873659432486E-002  -1.5231065831124112E-003    141.6754797932111     
   0.8770464460668478        0.4525521337706241       -3.3069732175321775E-003 
  -7.8506164394630366E-003  -2.3146647006724265E-003    129.1789285147278     
   0.9083695334263781        0.4639528052148131       -7.3434842416180335E-004 
  -3.4641503511888723E-003  -3.0587666455969649E-003    115.3346566386788     
   0.9396926207859084        0.4753534766590021         0.000000000000000      
    0.000000000000000       -4.1910692911236907E-003    100.0000000000000     
    0.000000000000000        0.1666666666666667         0.000000000000000      
    0.000000000000000        5.1372893144371792E-004    100.0000000000000     
   3.1323087359530280E-002   0.1780673381108556       -1.1346031470315037E-004 
   8.0624592975770163E-005   4.8300383215489580E-004    106.0108043023585     
   6.2646174719060560E-002   0.1894680095550446       -7.3820283424217033E-004 
   8.3800021178918004E-004   4.0231505732869603E-004    112.8402467521957     
   9.3969262078590840E-002   0.2008686809992335       -2.0475733803788656E-003 
   1.9920099232117097E-003   2.6529052688693426E-004    120.3069281582874     
   0.1252923494381211        0.2122693524434225       -4.1424869105104248E-003 
   3.2654874212157928E-003   1.0035731743555972E-004    128.3755736655164     
   0.1566154367976514        0.2236700238876114       -7.0387876716085087E-003 
   4.4216796980114416E-003  -7.4228311180173678E-005    136.6171636518555     
   0.1879385241571817        0.2350706953318004       -1.0691147600700579E-002 
   5.2730518761373857E-003  -2.4457424929051733E-004    144.9784570380969     
   0.2192616115167120        0.2464713667759894       -1.5004056688507862E-002 
   5.6855791791415580E-003  -3.9829019223859216E-004    153.0020558126683     
   0.2505846988762422        0.2578720382201784       -1.9847794793278702E-002 
   5.5792685470241960E-003  -5.2801581698738178E-004    161.7200118072536     
   0.2819077862357726        0.2692727096643673       -2.5068589788041013E-002 
   4.9127757225061863E-003  -6.3305307884926442E-004    169.7521038270905     
   0.3132308735953028        0.2806733811085562       -3.0487791975993227E-002 
   3.6733857765438929E-003  -7.0237604333233479E-004    177.5671175330607     
   0.3445539609548331        0.2920740525527452       -3.5924832383814692E-002 
   1.8768378491472969E-003  -7.3916605101657115E-004    186.5457382468259     
   0.3758770483143634        0.3034747239969342       -4.1173117392454044E-002 
  -4.4238361354870839E-004  -7.4242534152472669E-004    194.4392766678961     
   0.4072001356738937        0.3148753954411231       -4.6024243789445939E-002 
  -3.2395157396268967E-003  -7.1113461980623421E-004    201.0713047149209     
   0.4385232230334239        0.3262760668853121       -5.0271112775349965E-002 
  -6.4528629578646801E-003  -6.4433207526464246E-004    206.6355450429439     
   0.4698463103929542        0.3376767383295010       -5.3703899271996362E-002 
  -1.0005129781365679E-002  -5.4276390858701187E-004    210.9806215088069     
   0.5011693977524845        0.3490774097736900       -5.6126316586111620E-002 
  -1.3795048656761389E-002  -4.1000936361665314E-004    214.1476229289744     
   0.5324924851120148        0.3604780812178789       -5.7364935682108278E-002 
  -1.7691927471486894E-002  -2.5344120356843872E-004    216.0943211993300     
   0.5638155724715451        0.3718787526620679       -5.7282376182573709E-002 
  -2.1533065200113392E-002  -8.5794019267576791E-005    216.7219896198899     
   0.5951386598310754        0.3832794241062568       -5.5792127854545737E-002 
  -2.5121508423916323E-002   7.4213554784937949E-005    215.9210457364549     
   0.6264617471906057        0.3946800955504458       -5.2873749525010103E-002 
  -2.8229588747820913E-002   2.0187747300173762E-004    213.5662064417608     
   0.6577848345501358        0.4060807669946348       -4.8587697675439516E-002 
  -3.0608160108344253E-002   2.6796934714299345E-004    209.5127864967104     
   0.6891079219096662        0.4174814384388237       -4.3086172665275979E-002 
  -3.2000283275808776E-002   2.4002351499586381E-004    203.6893071922703     
   0.7204310092691965        0.4288821098830127       -3.6619546260026260E-002 
  -3.2174738013948961E-002   8.7983869002203219E-005    196.1726957341924     
   0.7517540966287267        0.4402827813272017       -2.9531524557038655E-002 
  -3.0926830099672283E-002  -2.0239622899736041E-004    186.9072449833467     
   0.7830771839882570        0.4516834527713906       -2.2261376857221040E-002 
  -2.8158610546022575E-002  -6.5550834823912424E-004    177.4297021106058     
   0.8144002713477874        0.4630841242155795       -1.5299352027978190E-002 
  -2.3904440171798089E-002  -1.2891452096078721E-003    165.1590136507029     
   0.8457233587073176        0.4744847956597685       -9.1195973403528537E-003 
  -1.8395270279377270E-002  -2.0442436099004460E-003    151.0375826988260     
   0.8770464460668478        0.4858854671039574       -4.2460447545541015E-003 
  -1.2077640519105091E-002  -2.9869799042103128E-003    135.6107549905338     
   0.9083695334263781        0.4972861385481464       -9.4163700219093498E-004 
  -5.6540072541503891E-003  -3.8786808975286679E-003    118.6636337911254     
   0.9396926207859084        0.5086868099923354         0.000000000000000      